<?xml version="1.0" ?> 
<!-- 
# vtk DataFile Version 3.0
-->
<VTKFile type="UnstructuredGrid" version="0.1" compressor="vtkZLibDataCompressor" byte_order="LittleEndian">
  <UnstructuredGrid>
    <FieldData>
      <DataArray type="Float64" Name="TIME" NumberOfTuples="1" format="ascii">
1.000000000000000e+00 
      </DataArray>
    </FieldData>

    <Piece NumberOfPoints="5784" NumberOfCells="723" >
      <Points>
        <DataArray type="Float64" NumberOfComponents="3" format="ascii">
-1.253225969512080e-01 4.840395094343075e-01 4.999999999999999e-02
-1.253225969512080e-01 4.840395094343076e-01 6.666666666666667e-02
-7.571137528953702e-02 4.942345472058453e-01 6.666666666666667e-02
-7.571137528953706e-02 4.942345472058453e-01 4.999999999999999e-02
-1.460145347356837e-01 5.639589785332624e-01 4.999999999999999e-02
-1.460145347356837e-01 5.639589785332624e-01 6.666666666666669e-02
-8.821001856501655e-02 5.758241534746635e-01 6.666666666666669e-02
-8.821001856501656e-02 5.758241534746635e-01 4.999999999999999e-02
-1.460145347356837e-01 5.639589785332624e-01 4.999999999999999e-02
-1.460145347356837e-01 5.639589785332624e-01 6.666666666666669e-02
-8.821001856501655e-02 5.758241534746635e-01 6.666666666666669e-02
-8.821001856501656e-02 5.758241534746635e-01 4.999999999999999e-02
-1.668737539836385e-01 6.445245468951568e-01 5.000000000000000e-02
-1.668737539836385e-01 6.445245468951569e-01 6.666666666666668e-02
-1.008114497885904e-01 6.580847468281870e-01 6.666666666666668e-02
-1.008114497885903e-01 6.580847468281870e-01 5.000000000000000e-02
-1.668737539836385e-01 6.445245468951568e-01 5.000000000000000e-02
-1.668737539836385e-01 6.445245468951569e-01 6.666666666666668e-02
-1.008114497885904e-01 6.580847468281870e-01 6.666666666666668e-02
-1.008114497885903e-01 6.580847468281870e-01 5.000000000000000e-02
-1.877329732315934e-01 7.250901152570516e-01 5.000000000000000e-02
-1.877329732315934e-01 7.250901152570515e-01 6.666666666666669e-02
-1.134128810121642e-01 7.403453401817103e-01 6.666666666666668e-02
-1.134128810121642e-01 7.403453401817103e-01 5.000000000000000e-02
-1.877329732315934e-01 7.250901152570516e-01 5.000000000000000e-02
-1.877329732315934e-01 7.250901152570515e-01 6.666666666666669e-02
-1.134128810121642e-01 7.403453401817103e-01 6.666666666666668e-02
-1.134128810121642e-01 7.403453401817103e-01 5.000000000000000e-02
-2.085921924795482e-01 8.056556836189462e-01 4.999999999999999e-02
-2.085921924795482e-01 8.056556836189461e-01 6.666666666666668e-02
-1.260143122357380e-01 8.226059335352337e-01 6.666666666666668e-02
-1.260143122357379e-01 8.226059335352338e-01 4.999999999999999e-02
-2.085921924795482e-01 8.056556836189462e-01 4.999999999999999e-02
-2.085921924795482e-01 8.056556836189461e-01 6.666666666666668e-02
-1.260143122357380e-01 8.226059335352337e-01 6.666666666666668e-02
-1.260143122357379e-01 8.226059335352338e-01 4.999999999999999e-02
-2.294514117275031e-01 8.862212519808408e-01 4.999999999999999e-02
-2.294514117275031e-01 8.862212519808408e-01 6.666666666666669e-02
-1.386157434593118e-01 9.048665268887571e-01 6.666666666666669e-02
-1.386157434593118e-01 9.048665268887571e-01 4.999999999999999e-02
-2.294514117275031e-01 8.862212519808408e-01 4.999999999999999e-02
-2.294514117275031e-01 8.862212519808408e-01 6.666666666666669e-02
-1.386157434593118e-01 9.048665268887571e-01 6.666666666666669e-02
-1.386157434593118e-01 9.048665268887571e-01 4.999999999999999e-02
-2.506451939024160e-01 9.680790188686150e-01 5.000000000000000e-02
-2.506451939024161e-01 9.680790188686150e-01 6.666666666666668e-02
-1.514227505790739e-01 9.884690944116905e-01 6.666666666666669e-02
-1.514227505790738e-01 9.884690944116905e-01 5.000000000000000e-02
-7.571137528953706e-02 4.942345472058453e-01 4.999999999999999e-02
-7.571137528953702e-02 4.942345472058453e-01 6.666666666666667e-02
-2.532366460489958e-02 4.993583002323868e-01 6.666666666666667e-02
-2.532366460489961e-02 4.993583002323868e-01 4.999999999999999e-02
-8.821001856501656e-02 5.758241534746635e-01 4.999999999999999e-02
-8.821001856501655e-02 5.758241534746635e-01 6.666666666666669e-02
-2.950382860753510e-02 5.817871123184866e-01 6.666666666666669e-02
-2.950382860753511e-02 5.817871123184866e-01 5.000000000000000e-02
-8.821001856501656e-02 5.758241534746635e-01 4.999999999999999e-02
-8.821001856501655e-02 5.758241534746635e-01 6.666666666666669e-02
-2.950382860753510e-02 5.817871123184866e-01 6.666666666666669e-02
-2.950382860753511e-02 5.817871123184866e-01 5.000000000000000e-02
-1.008114497885903e-01 6.580847468281870e-01 5.000000000000000e-02
-1.008114497885904e-01 6.580847468281870e-01 6.666666666666668e-02
-3.371866126575442e-02 6.648995569354132e-01 6.666666666666668e-02
-3.371866126575442e-02 6.648995569354132e-01 5.000000000000000e-02
-1.008114497885903e-01 6.580847468281870e-01 5.000000000000000e-02
-1.008114497885904e-01 6.580847468281870e-01 6.666666666666668e-02
-3.371866126575442e-02 6.648995569354132e-01 6.666666666666668e-02
-3.371866126575442e-02 6.648995569354132e-01 5.000000000000000e-02
-1.134128810121642e-01 7.403453401817103e-01 5.000000000000000e-02
-1.134128810121642e-01 7.403453401817103e-01 6.666666666666668e-02
-3.793349392397373e-02 7.480120015523399e-01 6.666666666666668e-02
-3.793349392397372e-02 7.480120015523399e-01 5.000000000000000e-02
-1.134128810121642e-01 7.403453401817103e-01 5.000000000000000e-02
-1.134128810121642e-01 7.403453401817103e-01 6.666666666666668e-02
-3.793349392397373e-02 7.480120015523399e-01 6.666666666666668e-02
-3.793349392397372e-02 7.480120015523399e-01 5.000000000000000e-02
-1.260143122357379e-01 8.226059335352338e-01 4.999999999999999e-02
-1.260143122357380e-01 8.226059335352337e-01 6.666666666666668e-02
-4.214832658219303e-02 8.311244461692667e-01 6.666666666666665e-02
-4.214832658219300e-02 8.311244461692667e-01 4.999999999999999e-02
-1.260143122357379e-01 8.226059335352338e-01 4.999999999999999e-02
-1.260143122357380e-01 8.226059335352337e-01 6.666666666666668e-02
-4.214832658219303e-02 8.311244461692667e-01 6.666666666666665e-02
-4.214832658219300e-02 8.311244461692667e-01 4.999999999999999e-02
-1.386157434593118e-01 9.048665268887571e-01 4.999999999999999e-02
-1.386157434593118e-01 9.048665268887571e-01 6.666666666666669e-02
-4.636315924041234e-02 9.142368907861933e-01 6.666666666666668e-02
-4.636315924041230e-02 9.142368907861933e-01 4.999999999999999e-02
-1.386157434593118e-01 9.048665268887571e-01 4.999999999999999e-02
-1.386157434593118e-01 9.048665268887571e-01 6.666666666666669e-02
-4.636315924041234e-02 9.142368907861933e-01 6.666666666666668e-02
-4.636315924041230e-02 9.142368907861933e-01 4.999999999999999e-02
-1.514227505790738e-01 9.884690944116905e-01 5.000000000000000e-02
-1.514227505790739e-01 9.884690944116905e-01 6.666666666666669e-02
-5.064732920979921e-02 9.987166004647734e-01 6.666666666666669e-02
-5.064732920979916e-02 9.987166004647735e-01 4.999999999999999e-02
-2.532366460489961e-02 4.993583002323868e-01 4.999999999999999e-02
-2.532366460489958e-02 4.993583002323868e-01 6.666666666666667e-02
2.532366460489953e-02 4.993583002323868e-01 6.666666666666667e-02
2.532366460489950e-02 4.993583002323868e-01 4.999999999999999e-02
-2.950382860753511e-02 5.817871123184866e-01 5.000000000000000e-02
-2.950382860753510e-02 5.817871123184866e-01 6.666666666666669e-02
2.950382860753503e-02 5.817871123184866e-01 6.666666666666669e-02
2.950382860753502e-02 5.817871123184866e-01 4.999999999999999e-02
-2.950382860753511e-02 5.817871123184866e-01 5.000000000000000e-02
-2.950382860753510e-02 5.817871123184866e-01 6.666666666666669e-02
2.950382860753503e-02 5.817871123184866e-01 6.666666666666669e-02
2.950382860753502e-02 5.817871123184866e-01 4.999999999999999e-02
-3.371866126575442e-02 6.648995569354132e-01 5.000000000000000e-02
-3.371866126575442e-02 6.648995569354132e-01 6.666666666666668e-02
3.371866126575430e-02 6.648995569354135e-01 6.666666666666668e-02
3.371866126575430e-02 6.648995569354134e-01 5.000000000000000e-02
-3.371866126575442e-02 6.648995569354132e-01 5.000000000000000e-02
-3.371866126575442e-02 6.648995569354132e-01 6.666666666666668e-02
3.371866126575430e-02 6.648995569354135e-01 6.666666666666668e-02
3.371866126575430e-02 6.648995569354134e-01 5.000000000000000e-02
-3.793349392397372e-02 7.480120015523399e-01 5.000000000000000e-02
-3.793349392397373e-02 7.480120015523399e-01 6.666666666666668e-02
3.793349392397360e-02 7.480120015523400e-01 6.666666666666669e-02
3.793349392397360e-02 7.480120015523400e-01 4.999999999999999e-02
-3.793349392397372e-02 7.480120015523399e-01 5.000000000000000e-02
-3.793349392397373e-02 7.480120015523399e-01 6.666666666666668e-02
3.793349392397360e-02 7.480120015523400e-01 6.666666666666669e-02
3.793349392397360e-02 7.480120015523400e-01 4.999999999999999e-02
-4.214832658219300e-02 8.311244461692667e-01 4.999999999999999e-02
-4.214832658219303e-02 8.311244461692667e-01 6.666666666666665e-02
4.214832658219288e-02 8.311244461692667e-01 6.666666666666668e-02
4.214832658219290e-02 8.311244461692666e-01 4.999999999999999e-02
-4.214832658219300e-02 8.311244461692667e-01 4.999999999999999e-02
-4.214832658219303e-02 8.311244461692667e-01 6.666666666666665e-02
4.214832658219288e-02 8.311244461692667e-01 6.666666666666668e-02
4.214832658219290e-02 8.311244461692666e-01 4.999999999999999e-02
-4.636315924041230e-02 9.142368907861933e-01 4.999999999999999e-02
-4.636315924041234e-02 9.142368907861933e-01 6.666666666666668e-02
4.636315924041214e-02 9.142368907861933e-01 6.666666666666669e-02
4.636315924041218e-02 9.142368907861933e-01 4.999999999999999e-02
-4.636315924041230e-02 9.142368907861933e-01 4.999999999999999e-02
-4.636315924041234e-02 9.142368907861933e-01 6.666666666666668e-02
4.636315924041214e-02 9.142368907861933e-01 6.666666666666669e-02
4.636315924041218e-02 9.142368907861933e-01 4.999999999999999e-02
-5.064732920979916e-02 9.987166004647735e-01 4.999999999999999e-02
-5.064732920979921e-02 9.987166004647734e-01 6.666666666666669e-02
[...]
  <PointData>
        <DataArray type="Float64" Name="conductivity" NumberOfComponents="9" format="ascii">
9.349989171819659e+02 2.411584738185364e+02 0.000000000000000e+00 2.411584738185364e+02 6.600108281803395e+01 0.000000000000000e+00 0.000000000000000e+00 0.000000000000000e+00 1.000000000000000e+00
9.349989171819661e+02 2.411584738185364e+02 0.000000000000000e+00 2.411584738185364e+02 6.600108281803392e+01 0.000000000000000e+00 0.000000000000000e+00 0.000000000000000e+00 1.000000000000000e+00
7.496488349297707e+02 1.487602978082411e+02 0.000000000000000e+00 1.487602978082411e+02 2.635116507022933e+01 0.000000000000000e+00 0.000000000000000e+00 0.000000000000000e+00 1.000000000000000e+00
7.496488349297706e+02 1.487602978082411e+02 0.000000000000000e+00 1.487602978082411e+02 2.635116507022934e+01 0.000000000000000e+00 0.000000000000000e+00 0.000000000000000e+00 1.000000000000000e+00
8.224988335059729e+02 2.411586175968575e+02 0.000000000000000e+00 2.411586175968575e+02 6.600116649402707e+01 0.000000000000000e+00 0.000000000000000e+00 0.000000000000000e+00 1.000000000000000e+00
8.224988335059729e+02 2.411586175968575e+02 0.000000000000000e+00 2.411586175968575e+02 6.600116649402707e+01 0.000000000000000e+00 0.000000000000000e+00 0.000000000000000e+00 1.000000000000000e+00
6.371488018534162e+02 1.487603919215013e+02 0.000000000000000e+00 1.487603919215013e+02 2.635119814658375e+01 0.000000000000000e+00 0.000000000000000e+00 0.000000000000000e+00 1.000000000000000e+00
6.371488018534162e+02 1.487603919215013e+02 0.000000000000000e+00 1.487603919215013e+02 2.635119814658376e+01 0.000000000000000e+00 0.000000000000000e+00 0.000000000000000e+00 1.000000000000000e+00
8.224988335059729e+02 2.411586175968575e+02 0.000000000000000e+00 2.411586175968575e+02 6.600116649402707e+01 0.000000000000000e+00 0.000000000000000e+00 0.000000000000000e+00 1.000000000000000e+00
8.224988335059729e+02 2.411586175968575e+02 0.000000000000000e+00 2.411586175968575e+02 6.600116649402707e+01 0.000000000000000e+00 0.000000000000000e+00 0.000000000000000e+00 1.000000000000000e+00
6.371488018534162e+02 1.487603919215013e+02 0.000000000000000e+00 1.487603919215013e+02 2.635119814658375e+01 0.000000000000000e+00 0.000000000000000e+00 0.000000000000000e+00 1.000000000000000e+00
6.371488018534162e+02 1.487603919215013e+02 0.000000000000000e+00 1.487603919215013e+02 2.635119814658376e+01 0.000000000000000e+00 0.000000000000000e+00 0.000000000000000e+00 1.000000000000000e+00
7.099987498299797e+02 2.411587613751787e+02 0.000000000000000e+00 2.411587613751787e+02 6.600125017002023e+01 0.000000000000000e+00 0.000000000000000e+00 0.000000000000000e+00 1.000000000000000e+00
7.099987498299797e+02 2.411587613751787e+02 0.000000000000000e+00 2.411587613751787e+02 6.600125017002023e+01 0.000000000000000e+00 0.000000000000000e+00 0.000000000000000e+00 1.000000000000000e+00
5.246487687770617e+02 1.487604860347614e+02 0.000000000000000e+00 1.487604860347615e+02 2.635123122293817e+01 0.000000000000000e+00 0.000000000000000e+00 0.000000000000000e+00 1.000000000000000e+00
5.246487687770617e+02 1.487604860347615e+02 0.000000000000000e+00 1.487604860347615e+02 2.635123122293817e+01 0.000000000000000e+00 0.000000000000000e+00 0.000000000000000e+00 1.000000000000000e+00
7.099987498299797e+02 2.411587613751787e+02 0.000000000000000e+00 2.411587613751787e+02 6.600125017002023e+01 0.000000000000000e+00 0.000000000000000e+00 0.000000000000000e+00 1.000000000000000e+00
7.099987498299797e+02 2.411587613751787e+02 0.000000000000000e+00 2.411587613751787e+02 6.600125017002023e+01 0.000000000000000e+00 0.000000000000000e+00 0.000000000000000e+00 1.000000000000000e+00
5.246487687770617e+02 1.487604860347614e+02 0.000000000000000e+00 1.487604860347615e+02 2.635123122293817e+01 0.000000000000000e+00 0.000000000000000e+00 0.000000000000000e+00 1.000000000000000e+00
5.246487687770617e+02 1.487604860347615e+02 0.000000000000000e+00 1.487604860347615e+02 2.635123122293817e+01 0.000000000000000e+00 0.000000000000000e+00 0.000000000000000e+00 1.000000000000000e+00
7.099987498299797e+02 2.411587613751787e+02 0.000000000000000e+00 2.411587613751788e+02 6.600125017002023e+01 0.000000000000000e+00 0.000000000000000e+00 0.000000000000000e+00 1.000000000000000e+00
7.099987498299797e+02 2.411587613751788e+02 0.000000000000000e+00 2.411587613751788e+02 6.600125017002023e+01 0.000000000000000e+00 0.000000000000000e+00 0.000000000000000e+00 1.000000000000000e+00
6.371487687770616e+02 1.487604860347615e+02 0.000000000000000e+00 1.487604860347615e+02 2.635123122293819e+01 0.000000000000000e+00 0.000000000000000e+00 0.000000000000000e+00 1.000000000000000e+00
6.371487687770616e+02 1.487604860347615e+02 0.000000000000000e+00 1.487604860347615e+02 2.635123122293818e+01 0.000000000000000e+00 0.000000000000000e+00 0.000000000000000e+00 1.000000000000000e+00
7.099987498299797e+02 2.411587613751787e+02 0.000000000000000e+00 2.411587613751788e+02 6.600125017002023e+01 0.000000000000000e+00 0.000000000000000e+00 0.000000000000000e+00 1.000000000000000e+00
7.099987498299797e+02 2.411587613751788e+02 0.000000000000000e+00 2.411587613751788e+02 6.600125017002023e+01 0.000000000000000e+00 0.000000000000000e+00 0.000000000000000e+00 1.000000000000000e+00
6.371487687770616e+02 1.487604860347615e+02 0.000000000000000e+00 1.487604860347615e+02 2.635123122293819e+01 0.000000000000000e+00 0.000000000000000e+00 0.000000000000000e+00 1.000000000000000e+00
6.371487687770616e+02 1.487604860347615e+02 0.000000000000000e+00 1.487604860347615e+02 2.635123122293818e+01 0.000000000000000e+00 0.000000000000000e+00 0.000000000000000e+00 1.000000000000000e+00
7.099987498299797e+02 2.411587613751787e+02 0.000000000000000e+00 2.411587613751788e+02 6.600125017002021e+01 0.000000000000000e+00 0.000000000000000e+00 0.000000000000000e+00 1.000000000000000e+00
7.099987498299797e+02 2.411587613751788e+02 0.000000000000000e+00 2.411587613751788e+02 6.600125017002024e+01 0.000000000000000e+00 0.000000000000000e+00 0.000000000000000e+00 1.000000000000000e+00
7.496487687770617e+02 1.487604860347615e+02 0.000000000000000e+00 1.487604860347615e+02 2.635123122293820e+01 0.000000000000000e+00 0.000000000000000e+00 0.000000000000000e+00 1.000000000000000e+00
7.496487687770617e+02 1.487604860347615e+02 0.000000000000000e+00 1.487604860347615e+02 2.635123122293818e+01 0.000000000000000e+00 0.000000000000000e+00 0.000000000000000e+00 1.000000000000000e+00
7.099987498299797e+02 2.411587613751787e+02 0.000000000000000e+00 2.411587613751788e+02 6.600125017002021e+01 0.000000000000000e+00 0.000000000000000e+00 0.000000000000000e+00 1.000000000000000e+00
7.099987498299797e+02 2.411587613751788e+02 0.000000000000000e+00 2.411587613751788e+02 6.600125017002024e+01 0.000000000000000e+00 0.000000000000000e+00 0.000000000000000e+00 1.000000000000000e+00
7.496487687770617e+02 1.487604860347615e+02 0.000000000000000e+00 1.487604860347615e+02 2.635123122293820e+01 0.000000000000000e+00 0.000000000000000e+00 0.000000000000000e+00 1.000000000000000e+00
7.496487687770617e+02 1.487604860347615e+02 0.000000000000000e+00 1.487604860347615e+02 2.635123122293818e+01 0.000000000000000e+00 0.000000000000000e+00 0.000000000000000e+00 1.000000000000000e+00
7.099988444126661e+02 2.411585988561796e+02 0.000000000000000e+00 2.411585988561796e+02 6.600115558733380e+01 0.000000000000000e+00 0.000000000000000e+00 0.000000000000000e+00 1.000000000000000e+00
7.099988444126661e+02 2.411585988561796e+02 0.000000000000000e+00 2.411585988561796e+02 6.600115558733383e+01 0.000000000000000e+00 0.000000000000000e+00 0.000000000000000e+00 1.000000000000000e+00
7.496488061646803e+02 1.487603796545233e+02 0.000000000000000e+00 1.487603796545233e+02 2.635119383531979e+01 0.000000000000000e+00 0.000000000000000e+00 0.000000000000000e+00 1.000000000000000e+00
7.496488061646803e+02 1.487603796545233e+02 0.000000000000000e+00 1.487603796545233e+02 2.635119383531977e+01 0.000000000000000e+00 0.000000000000000e+00 0.000000000000000e+00 1.000000000000000e+00
7.099988444126661e+02 2.411585988561796e+02 0.000000000000000e+00 2.411585988561796e+02 6.600115558733380e+01 0.000000000000000e+00 0.000000000000000e+00 0.000000000000000e+00 1.000000000000000e+00
7.099988444126661e+02 2.411585988561796e+02 0.000000000000000e+00 2.411585988561796e+02 6.600115558733383e+01 0.000000000000000e+00 0.000000000000000e+00 0.000000000000000e+00 1.000000000000000e+00
7.496488061646803e+02 1.487603796545233e+02 0.000000000000000e+00 1.487603796545233e+02 2.635119383531979e+01 0.000000000000000e+00 0.000000000000000e+00 0.000000000000000e+00 1.000000000000000e+00
7.496488061646803e+02 1.487603796545233e+02 0.000000000000000e+00 1.487603796545233e+02 2.635119383531977e+01 0.000000000000000e+00 0.000000000000000e+00 0.000000000000000e+00 1.000000000000000e+00
7.099989389953527e+02 2.411584363371804e+02 0.000000000000000e+00 2.411584363371804e+02 6.600106100464737e+01 0.000000000000000e+00 0.000000000000000e+00 0.000000000000000e+00 1.000000000000000e+00
7.099989389953525e+02 2.411584363371804e+02 0.000000000000000e+00 2.411584363371804e+02 6.600106100464741e+01 0.000000000000000e+00 0.000000000000000e+00 0.000000000000000e+00 1.000000000000000e+00
7.496488435522988e+02 1.487602732742851e+02 0.000000000000000e+00 1.487602732742851e+02 2.635115644770138e+01 0.000000000000000e+00 0.000000000000000e+00 0.000000000000000e+00 1.000000000000000e+00
7.496488435522988e+02 1.487602732742850e+02 0.000000000000000e+00 1.487602732742850e+02 2.635115644770136e+01 0.000000000000000e+00 0.000000000000000e+00 0.000000000000000e+00 1.000000000000000e+00
7.496488349297706e+02 1.487602978082411e+02 0.000000000000000e+00 1.487602978082411e+02 2.635116507022934e+01 0.000000000000000e+00 0.000000000000000e+00 0.000000000000000e+00 1.000000000000000e+00
7.496488349297707e+02 1.487602978082411e+02 0.000000000000000e+00 1.487602978082411e+02 2.635116507022933e+01 0.000000000000000e+00 0.000000000000000e+00 0.000000000000000e+00 1.000000000000000e+00
7.698879354483784e+02 5.027268681456200e+01 0.000000000000000e+00 5.027268681456200e+01 6.112064551621581e+00 0.000000000000000e+00 0.000000000000000e+00 0.000000000000000e+00 1.000000000000000e+00
7.698879354483784e+02 5.027268681456205e+01 0.000000000000000e+00 5.027268681456205e+01 6.112064551621587e+00 0.000000000000000e+00 0.000000000000000e+00 0.000000000000000e+00 1.000000000000000e+00
6.371488018534162e+02 1.487603919215013e+02 0.000000000000000e+00 1.487603919215013e+02 2.635119814658376e+01 0.000000000000000e+00 0.000000000000000e+00 0.000000000000000e+00 1.000000000000000e+00
6.371488018534162e+02 1.487603919215013e+02 0.000000000000000e+00 1.487603919215013e+02 2.635119814658375e+01 0.000000000000000e+00 0.000000000000000e+00 0.000000000000000e+00 1.000000000000000e+00
7.698879287312483e+02 5.027271950157009e+01 0.000000000000000e+00 5.027271950157009e+01 6.112071268751656e+00 0.000000000000000e+00 0.000000000000000e+00 0.000000000000000e+00 1.000000000000000e+00
7.698879287312483e+02 5.027271950157012e+01 0.000000000000000e+00 5.027271950157012e+01 6.112071268751659e+00 0.000000000000000e+00 0.000000000000000e+00 0.000000000000000e+00 1.000000000000000e+00
6.371488018534162e+02 1.487603919215013e+02 0.000000000000000e+00 1.487603919215013e+02 2.635119814658376e+01 0.000000000000000e+00 0.000000000000000e+00 0.000000000000000e+00 1.000000000000000e+00
6.371488018534162e+02 1.487603919215013e+02 0.000000000000000e+00 1.487603919215013e+02 2.635119814658375e+01 0.000000000000000e+00 0.000000000000000e+00 0.000000000000000e+00 1.000000000000000e+00
7.698879287312483e+02 5.027271950157009e+01 0.000000000000000e+00 5.027271950157009e+01 6.112071268751656e+00 0.000000000000000e+00 0.000000000000000e+00 0.000000000000000e+00 1.000000000000000e+00
7.698879287312483e+02 5.027271950157012e+01 0.000000000000000e+00 5.027271950157012e+01 6.112071268751659e+00 0.000000000000000e+00 0.000000000000000e+00 0.000000000000000e+00 1.000000000000000e+00
5.246487687770617e+02 1.487604860347615e+02 0.000000000000000e+00 1.487604860347615e+02 2.635123122293817e+01 0.000000000000000e+00 0.000000000000000e+00 0.000000000000000e+00 1.000000000000000e+00
5.246487687770617e+02 1.487604860347614e+02 0.000000000000000e+00 1.487604860347615e+02 2.635123122293817e+01 0.000000000000000e+00 0.000000000000000e+00 0.000000000000000e+00 1.000000000000000e+00
7.698879220141182e+02 5.027275218857819e+01 0.000000000000000e+00 5.027275218857819e+01 6.112077985881734e+00 0.000000000000000e+00 0.000000000000000e+00 0.000000000000000e+00 1.000000000000000e+00
7.698879220141182e+02 5.027275218857819e+01 0.000000000000000e+00 5.027275218857819e+01 6.112077985881735e+00 0.000000000000000e+00 0.000000000000000e+00 0.000000000000000e+00 1.000000000000000e+00
5.246487687770617e+02 1.487604860347615e+02 0.000000000000000e+00 1.487604860347615e+02 2.635123122293817e+01 0.000000000000000e+00 0.000000000000000e+00 0.000000000000000e+00 1.000000000000000e+00
5.246487687770617e+02 1.487604860347614e+02 0.000000000000000e+00 1.487604860347615e+02 2.635123122293817e+01 0.000000000000000e+00 0.000000000000000e+00 0.000000000000000e+00 1.000000000000000e+00
7.698879220141182e+02 5.027275218857819e+01 0.000000000000000e+00 5.027275218857819e+01 6.112077985881734e+00 0.000000000000000e+00 0.000000000000000e+00 0.000000000000000e+00 1.000000000000000e+00
7.698879220141182e+02 5.027275218857819e+01 0.000000000000000e+00 5.027275218857819e+01 6.112077985881735e+00 0.000000000000000e+00 0.000000000000000e+00 0.000000000000000e+00 1.000000000000000e+00
6.371487687770616e+02 1.487604860347615e+02 0.000000000000000e+00 1.487604860347615e+02 2.635123122293818e+01 0.000000000000000e+00 0.000000000000000e+00 0.000000000000000e+00 1.000000000000000e+00
6.371487687770616e+02 1.487604860347615e+02 0.000000000000000e+00 1.487604860347615e+02 2.635123122293819e+01 0.000000000000000e+00 0.000000000000000e+00 0.000000000000000e+00 1.000000000000000e+00
8.823879220141182e+02 5.027275218857820e+01 0.000000000000000e+00 5.027275218857820e+01 6.112077985881735e+00 0.000000000000000e+00 0.000000000000000e+00 0.000000000000000e+00 1.000000000000000e+00
8.823879220141182e+02 5.027275218857818e+01 0.000000000000000e+00 5.027275218857818e+01 6.112077985881734e+00 0.000000000000000e+00 0.000000000000000e+00 0.000000000000000e+00 1.000000000000000e+00
6.371487687770616e+02 1.487604860347615e+02 0.000000000000000e+00 1.487604860347615e+02 2.635123122293818e+01 0.000000000000000e+00 0.000000000000000e+00 0.000000000000000e+00 1.000000000000000e+00
6.371487687770616e+02 1.487604860347615e+02 0.000000000000000e+00 1.487604860347615e+02 2.635123122293819e+01 0.000000000000000e+00 0.000000000000000e+00 0.000000000000000e+00 1.000000000000000e+00
8.823879220141182e+02 5.027275218857820e+01 0.000000000000000e+00 5.027275218857820e+01 6.112077985881735e+00 0.000000000000000e+00 0.000000000000000e+00 0.000000000000000e+00 1.000000000000000e+00
8.823879220141182e+02 5.027275218857818e+01 0.000000000000000e+00 5.027275218857818e+01 6.112077985881734e+00 0.000000000000000e+00 0.000000000000000e+00 0.000000000000000e+00 1.000000000000000e+00
7.496487687770617e+02 1.487604860347615e+02 0.000000000000000e+00 1.487604860347615e+02 2.635123122293818e+01 0.000000000000000e+00 0.000000000000000e+00 0.000000000000000e+00 1.000000000000000e+00
7.496487687770617e+02 1.487604860347615e+02 0.000000000000000e+00 1.487604860347615e+02 2.635123122293820e+01 0.000000000000000e+00 0.000000000000000e+00 0.000000000000000e+00 1.000000000000000e+00
9.948879220141183e+02 5.027275218857821e+01 0.000000000000000e+00 5.027275218857821e+01 6.112077985881736e+00 0.000000000000000e+00 0.000000000000000e+00 0.000000000000000e+00 1.000000000000000e+00
9.948879220141183e+02 5.027275218857818e+01 0.000000000000000e+00 5.027275218857818e+01 6.112077985881733e+00 0.000000000000000e+00 0.000000000000000e+00 0.000000000000000e+00 1.000000000000000e+00
7.496487687770617e+02 1.487604860347615e+02 0.000000000000000e+00 1.487604860347615e+02 2.635123122293818e+01 0.000000000000000e+00 0.000000000000000e+00 0.000000000000000e+00 1.000000000000000e+00
7.496487687770617e+02 1.487604860347615e+02 0.000000000000000e+00 1.487604860347615e+02 2.635123122293820e+01 0.000000000000000e+00 0.000000000000000e+00 0.000000000000000e+00 1.000000000000000e+00
9.948879220141183e+02 5.027275218857821e+01 0.000000000000000e+00 5.027275218857821e+01 6.112077985881736e+00 0.000000000000000e+00 0.000000000000000e+00 0.000000000000000e+00 1.000000000000000e+00
9.948879220141183e+02 5.027275218857818e+01 0.000000000000000e+00 5.027275218857818e+01 6.112077985881733e+00 0.000000000000000e+00 0.000000000000000e+00 0.000000000000000e+00 1.000000000000000e+00
7.496488061646803e+02 1.487603796545233e+02 0.000000000000000e+00 1.487603796545233e+02 2.635119383531977e+01 0.000000000000000e+00 0.000000000000000e+00 0.000000000000000e+00 1.000000000000000e+00
7.496488061646803e+02 1.487603796545233e+02 0.000000000000000e+00 1.487603796545233e+02 2.635119383531979e+01 0.000000000000000e+00 0.000000000000000e+00 0.000000000000000e+00 1.000000000000000e+00
9.948879296067715e+02 5.027271524108183e+01 0.000000000000000e+00 5.027271524108183e+01 6.112070393228515e+00 0.000000000000000e+00 0.000000000000000e+00 0.000000000000000e+00 1.000000000000000e+00
9.948879296067715e+02 5.027271524108180e+01 0.000000000000000e+00 5.027271524108180e+01 6.112070393228509e+00 0.000000000000000e+00 0.000000000000000e+00 0.000000000000000e+00 1.000000000000000e+00
7.496488061646803e+02 1.487603796545233e+02 0.000000000000000e+00 1.487603796545233e+02 2.635119383531977e+01 0.000000000000000e+00 0.000000000000000e+00 0.000000000000000e+00 1.000000000000000e+00
7.496488061646803e+02 1.487603796545233e+02 0.000000000000000e+00 1.487603796545233e+02 2.635119383531979e+01 0.000000000000000e+00 0.000000000000000e+00 0.000000000000000e+00 1.000000000000000e+00
9.948879296067715e+02 5.027271524108183e+01 0.000000000000000e+00 5.027271524108183e+01 6.112070393228515e+00 0.000000000000000e+00 0.000000000000000e+00 0.000000000000000e+00 1.000000000000000e+00
9.948879296067715e+02 5.027271524108180e+01 0.000000000000000e+00 5.027271524108180e+01 6.112070393228509e+00 0.000000000000000e+00 0.000000000000000e+00 0.000000000000000e+00 1.000000000000000e+00
7.496488435522988e+02 1.487602732742850e+02 0.000000000000000e+00 1.487602732742850e+02 2.635115644770136e+01 0.000000000000000e+00 0.000000000000000e+00 0.000000000000000e+00 1.000000000000000e+00
7.496488435522988e+02 1.487602732742851e+02 0.000000000000000e+00 1.487602732742851e+02 2.635115644770138e+01 0.000000000000000e+00 0.000000000000000e+00 0.000000000000000e+00 1.000000000000000e+00
9.948879371994248e+02 5.027267829358545e+01 0.000000000000000e+00 5.027267829358545e+01 6.112062800575290e+00 0.000000000000000e+00 0.000000000000000e+00 0.000000000000000e+00 1.000000000000000e+00
9.948879371994248e+02 5.027267829358540e+01 0.000000000000000e+00 5.027267829358540e+01 6.112062800575284e+00 0.000000000000000e+00 0.000000000000000e+00 0.000000000000000e+00 1.000000000000000e+00
7.698879354483784e+02 5.027268681456205e+01 0.000000000000000e+00 5.027268681456205e+01 6.112064551621587e+00 0.000000000000000e+00 0.000000000000000e+00 0.000000000000000e+00 1.000000000000000e+00
7.698879354483784e+02 5.027268681456200e+01 0.000000000000000e+00 5.027268681456200e+01 6.112064551621581e+00 0.000000000000000e+00 0.000000000000000e+00 0.000000000000000e+00 1.000000000000000e+00
9.948879354483784e+02 -5.027268681456185e+01 0.000000000000000e+00 -5.027268681456185e+01 6.112064551621563e+00 0.000000000000000e+00 0.000000000000000e+00 0.000000000000000e+00 1.000000000000000e+00
9.948879354483784e+02 -5.027268681456182e+01 0.000000000000000e+00 -5.027268681456182e+01 6.112064551621559e+00 0.000000000000000e+00 0.000000000000000e+00 0.000000000000000e+00 1.000000000000000e+00