<?xml version="1.0" ?> 
<!-- 
# vtk DataFile Version 3.0
-->
<VTKFile type="UnstructuredGrid" version="0.1" compressor="vtkZLibDataCompressor" byte_order="LittleEndian">
  <UnstructuredGrid>
    <FieldData>
      <DataArray type="Float64" Name="TIME" NumberOfTuples="1" format="ascii">
1.000000000000000e+00 
      </DataArray>
    </FieldData>

    <Piece NumberOfPoints="5920" NumberOfCells="740" >
      <Points>
        <DataArray type="Float64" NumberOfComponents="3" format="ascii">
4.974344092443204e-01 5.058664349167642e-02 4.999999999999999e-02
4.974344092443204e-01 5.058664349167641e-02 6.666666666666667e-02
5.000000000000000e-01 0.000000000000000e+00 6.666666666666667e-02
5.000000000000000e-01 0.000000000000000e+00 5.000000000000000e-02
5.802408913036399e-01 5.900765721507022e-02 5.000000000000000e-02
5.802408913036400e-01 5.900765721507023e-02 6.666666666666668e-02
5.833333333333333e-01 0.000000000000000e+00 6.666666666666667e-02
5.833333333333333e-01 0.000000000000000e+00 5.000000000000000e-02
5.802408913036399e-01 5.900765721507022e-02 5.000000000000000e-02
5.802408913036400e-01 5.900765721507023e-02 6.666666666666668e-02
5.833333333333333e-01 0.000000000000000e+00 6.666666666666667e-02
5.833333333333333e-01 0.000000000000000e+00 5.000000000000000e-02
6.631324472041599e-01 6.743732253150880e-02 5.000000000000000e-02
6.631324472041599e-01 6.743732253150880e-02 6.666666666666667e-02
6.666666666666665e-01 0.000000000000000e+00 6.666666666666665e-02
6.666666666666665e-01 0.000000000000000e+00 5.000000000000000e-02
6.631324472041599e-01 6.743732253150880e-02 5.000000000000000e-02
6.631324472041599e-01 6.743732253150880e-02 6.666666666666667e-02
6.666666666666665e-01 0.000000000000000e+00 6.666666666666665e-02
6.666666666666665e-01 0.000000000000000e+00 5.000000000000000e-02
7.460240031046799e-01 7.586698784794742e-02 5.000000000000002e-02
7.460240031046799e-01 7.586698784794743e-02 6.666666666666669e-02
7.500000000000000e-01 0.000000000000000e+00 6.666666666666667e-02
7.500000000000000e-01 0.000000000000000e+00 5.000000000000000e-02
7.460240031046799e-01 7.586698784794742e-02 5.000000000000002e-02
7.460240031046799e-01 7.586698784794743e-02 6.666666666666669e-02
7.500000000000000e-01 0.000000000000000e+00 6.666666666666667e-02
7.500000000000000e-01 0.000000000000000e+00 5.000000000000000e-02
8.289155590052000e-01 8.429665316438600e-02 5.000000000000002e-02
8.289155590052000e-01 8.429665316438602e-02 6.666666666666669e-02
8.333333333333333e-01 0.000000000000000e+00 6.666666666666668e-02
8.333333333333333e-01 0.000000000000000e+00 5.000000000000000e-02
8.289155590052000e-01 8.429665316438600e-02 5.000000000000002e-02
8.289155590052000e-01 8.429665316438602e-02 6.666666666666669e-02
8.333333333333333e-01 0.000000000000000e+00 6.666666666666668e-02
8.333333333333333e-01 0.000000000000000e+00 5.000000000000000e-02
9.118071149057199e-01 9.272631848082459e-02 5.000000000000000e-02
9.118071149057199e-01 9.272631848082462e-02 6.666666666666668e-02
9.166666666666666e-01 0.000000000000000e+00 6.666666666666668e-02
9.166666666666666e-01 0.000000000000000e+00 5.000000000000000e-02
9.118071149057199e-01 9.272631848082459e-02 5.000000000000000e-02
9.118071149057199e-01 9.272631848082462e-02 6.666666666666668e-02
9.166666666666666e-01 0.000000000000000e+00 6.666666666666668e-02
9.166666666666666e-01 0.000000000000000e+00 5.000000000000000e-02
9.948688184886407e-01 1.011732869833529e-01 5.000000000000000e-02
9.948688184886407e-01 1.011732869833529e-01 6.666666666666669e-02
1.000000000000000e+00 0.000000000000000e+00 6.666666666666667e-02
1.000000000000000e+00 0.000000000000000e+00 5.000000000000000e-02
4.974344092443204e-01 5.058664349167641e-02 6.666666666666667e-02
4.974344092443204e-01 5.058664349167638e-02 8.333333333333334e-02
5.000000000000000e-01 0.000000000000000e+00 8.333333333333333e-02
5.000000000000000e-01 0.000000000000000e+00 6.666666666666667e-02
5.802408913036400e-01 5.900765721507023e-02 6.666666666666668e-02
5.802408913036401e-01 5.900765721507022e-02 8.333333333333336e-02
5.833333333333333e-01 0.000000000000000e+00 8.333333333333334e-02
5.833333333333333e-01 0.000000000000000e+00 6.666666666666667e-02
5.802408913036400e-01 5.900765721507023e-02 6.666666666666668e-02
5.802408913036401e-01 5.900765721507022e-02 8.333333333333336e-02
5.833333333333333e-01 0.000000000000000e+00 8.333333333333334e-02
5.833333333333333e-01 0.000000000000000e+00 6.666666666666667e-02
6.631324472041599e-01 6.743732253150880e-02 6.666666666666667e-02
6.631324472041600e-01 6.743732253150880e-02 8.333333333333334e-02
6.666666666666665e-01 0.000000000000000e+00 8.333333333333334e-02
6.666666666666665e-01 0.000000000000000e+00 6.666666666666665e-02
6.631324472041599e-01 6.743732253150880e-02 6.666666666666667e-02
6.631324472041600e-01 6.743732253150880e-02 8.333333333333334e-02
6.666666666666665e-01 0.000000000000000e+00 8.333333333333334e-02
6.666666666666665e-01 0.000000000000000e+00 6.666666666666665e-02
7.460240031046799e-01 7.586698784794743e-02 6.666666666666669e-02
7.460240031046799e-01 7.586698784794743e-02 8.333333333333337e-02
7.499999999999999e-01 0.000000000000000e+00 8.333333333333334e-02
7.500000000000000e-01 0.000000000000000e+00 6.666666666666667e-02
7.460240031046799e-01 7.586698784794743e-02 6.666666666666669e-02
7.460240031046799e-01 7.586698784794743e-02 8.333333333333337e-02
7.499999999999999e-01 0.000000000000000e+00 8.333333333333334e-02
7.500000000000000e-01 0.000000000000000e+00 6.666666666666667e-02
8.289155590052000e-01 8.429665316438602e-02 6.666666666666669e-02
8.289155590051999e-01 8.429665316438603e-02 8.333333333333337e-02
8.333333333333333e-01 0.000000000000000e+00 8.333333333333336e-02
8.333333333333333e-01 0.000000000000000e+00 6.666666666666668e-02
8.289155590052000e-01 8.429665316438602e-02 6.666666666666669e-02
8.289155590051999e-01 8.429665316438603e-02 8.333333333333337e-02
8.333333333333333e-01 0.000000000000000e+00 8.333333333333336e-02
8.333333333333333e-01 0.000000000000000e+00 6.666666666666668e-02
9.118071149057199e-01 9.272631848082462e-02 6.666666666666668e-02
9.118071149057199e-01 9.272631848082463e-02 8.333333333333338e-02
9.166666666666666e-01 0.000000000000000e+00 8.333333333333336e-02
9.166666666666666e-01 0.000000000000000e+00 6.666666666666668e-02
9.118071149057199e-01 9.272631848082462e-02 6.666666666666668e-02
9.118071149057199e-01 9.272631848082463e-02 8.333333333333338e-02
9.166666666666666e-01 0.000000000000000e+00 8.333333333333336e-02
9.166666666666666e-01 0.000000000000000e+00 6.666666666666668e-02
9.948688184886407e-01 1.011732869833529e-01 6.666666666666669e-02
9.948688184886408e-01 1.011732869833529e-01 8.333333333333337e-02
1.000000000000000e+00 0.000000000000000e+00 8.333333333333333e-02
1.000000000000000e+00 0.000000000000000e+00 6.666666666666667e-02
4.974344092443204e-01 5.058664349167638e-02 8.333333333333334e-02
4.974344092443204e-01 5.058664349167639e-02 1.000000000000000e-01
5.000000000000000e-01 0.000000000000000e+00 1.000000000000000e-01
5.000000000000000e-01 0.000000000000000e+00 8.333333333333333e-02
5.802408913036401e-01 5.900765721507022e-02 8.333333333333336e-02
5.802408913036401e-01 5.900765721507022e-02 1.000000000000000e-01
5.833333333333333e-01 0.000000000000000e+00 1.000000000000000e-01
5.833333333333333e-01 0.000000000000000e+00 8.333333333333334e-02
5.802408913036401e-01 5.900765721507022e-02 8.333333333333336e-02
5.802408913036401e-01 5.900765721507022e-02 1.000000000000000e-01
5.833333333333333e-01 0.000000000000000e+00 1.000000000000000e-01
5.833333333333333e-01 0.000000000000000e+00 8.333333333333334e-02
6.631324472041600e-01 6.743732253150880e-02 8.333333333333334e-02
6.631324472041600e-01 6.743732253150880e-02 1.000000000000000e-01
6.666666666666666e-01 0.000000000000000e+00 1.000000000000000e-01
6.666666666666665e-01 0.000000000000000e+00 8.333333333333334e-02
6.631324472041600e-01 6.743732253150880e-02 8.333333333333334e-02
6.631324472041600e-01 6.743732253150880e-02 1.000000000000000e-01
6.666666666666666e-01 0.000000000000000e+00 1.000000000000000e-01
6.666666666666665e-01 0.000000000000000e+00 8.333333333333334e-02
7.460240031046799e-01 7.586698784794743e-02 8.333333333333337e-02
7.460240031046798e-01 7.586698784794743e-02 1.000000000000000e-01
7.500000000000000e-01 0.000000000000000e+00 1.000000000000000e-01
7.499999999999999e-01 0.000000000000000e+00 8.333333333333334e-02
7.460240031046799e-01 7.586698784794743e-02 8.333333333333337e-02
7.460240031046798e-01 7.586698784794743e-02 1.000000000000000e-01
7.500000000000000e-01 0.000000000000000e+00 1.000000000000000e-01
7.499999999999999e-01 0.000000000000000e+00 8.333333333333334e-02
8.289155590051999e-01 8.429665316438603e-02 8.333333333333337e-02
8.289155590051999e-01 8.429665316438603e-02 1.000000000000000e-01
8.333333333333334e-01 0.000000000000000e+00 1.000000000000000e-01
8.333333333333333e-01 0.000000000000000e+00 8.333333333333336e-02
8.289155590051999e-01 8.429665316438603e-02 8.333333333333337e-02
8.289155590051999e-01 8.429665316438603e-02 1.000000000000000e-01
8.333333333333334e-01 0.000000000000000e+00 1.000000000000000e-01
8.333333333333333e-01 0.000000000000000e+00 8.333333333333336e-02
9.118071149057199e-01 9.272631848082463e-02 8.333333333333338e-02
9.118071149057199e-01 9.272631848082466e-02 1.000000000000000e-01
9.166666666666667e-01 0.000000000000000e+00 1.000000000000000e-01
9.166666666666666e-01 0.000000000000000e+00 8.333333333333336e-02
9.118071149057199e-01 9.272631848082463e-02 8.333333333333338e-02
9.118071149057199e-01 9.272631848082466e-02 1.000000000000000e-01
9.166666666666667e-01 0.000000000000000e+00 1.000000000000000e-01
9.166666666666666e-01 0.000000000000000e+00 8.333333333333336e-02
9.948688184886408e-01 1.011732869833529e-01 8.333333333333337e-02
9.948688184886408e-01 1.011732869833529e-01 1.000000000000000e-01
1.000000000000000e+00 0.000000000000000e+00 1.000000000000000e-01
1.000000000000000e+00 0.000000000000000e+00 8.333333333333333e-02
[...]
  <PointData>
        <DataArray type="Float64" Name="conductivity" NumberOfComponents="9" format="ascii">
1.373588749983720e+01 -1.000352690550670e+02 0.000000000000000e+00 -1.000352690550670e+02 9.872641125001628e+02 0.000000000000000e+00 0.000000000000000e+00 0.000000000000000e+00 1.000000000000000e+00
1.373588749983719e+01 -1.000352690550670e+02 0.000000000000000e+00 -1.000352690550670e+02 9.872641125001628e+02 0.000000000000000e+00 0.000000000000000e+00 0.000000000000000e+00 1.000000000000000e+00
3.562789129165986e+00 1.598721155460225e-14 0.000000000000000e+00 1.598721155460225e-14 9.974372108708342e+02 0.000000000000000e+00 0.000000000000000e+00 0.000000000000000e+00 1.000000000000000e+00
3.562789129165986e+00 8.881784197001252e-15 0.000000000000000e+00 8.881784197001252e-15 9.974372108708342e+02 0.000000000000000e+00 0.000000000000000e+00 0.000000000000000e+00 1.000000000000000e+00
1.373569715454474e+01 -1.000343261936405e+02 0.000000000000000e+00 -1.000343261936405e+02 9.872643028454552e+02 0.000000000000000e+00 0.000000000000000e+00 0.000000000000000e+00 1.000000000000000e+00
1.373569715454473e+01 -1.000343261936405e+02 0.000000000000000e+00 -1.000343261936405e+02 9.872643028454552e+02 0.000000000000000e+00 0.000000000000000e+00 0.000000000000000e+00 1.000000000000000e+00
3.562687966647839e+00 9.769962616701378e-15 0.000000000000000e+00 9.769962616701378e-15 9.974373120333522e+02 0.000000000000000e+00 0.000000000000000e+00 0.000000000000000e+00 1.000000000000000e+00
3.562687966647839e+00 4.440892098500626e-15 0.000000000000000e+00 4.440892098500626e-15 9.974373120333522e+02 0.000000000000000e+00 0.000000000000000e+00 0.000000000000000e+00 1.000000000000000e+00
1.373569715454474e+01 -1.000343261936405e+02 0.000000000000000e+00 -1.000343261936405e+02 9.872643028454552e+02 0.000000000000000e+00 0.000000000000000e+00 0.000000000000000e+00 1.000000000000000e+00
1.373569715454473e+01 -1.000343261936405e+02 0.000000000000000e+00 -1.000343261936405e+02 9.872643028454552e+02 0.000000000000000e+00 0.000000000000000e+00 0.000000000000000e+00 1.000000000000000e+00
3.562687966647839e+00 9.769962616701378e-15 0.000000000000000e+00 9.769962616701378e-15 9.974373120333522e+02 0.000000000000000e+00 0.000000000000000e+00 0.000000000000000e+00 1.000000000000000e+00
3.562687966647839e+00 4.440892098500626e-15 0.000000000000000e+00 4.440892098500626e-15 9.974373120333522e+02 0.000000000000000e+00 0.000000000000000e+00 0.000000000000000e+00 1.000000000000000e+00
1.373550680925228e+01 -1.000333833322140e+02 0.000000000000000e+00 -1.000333833322140e+02 9.872644931907477e+02 0.000000000000000e+00 0.000000000000000e+00 0.000000000000000e+00 1.000000000000000e+00
1.373550680925228e+01 -1.000333833322140e+02 0.000000000000000e+00 -1.000333833322140e+02 9.872644931907477e+02 0.000000000000000e+00 0.000000000000000e+00 0.000000000000000e+00 1.000000000000000e+00
3.562586804129691e+00 -5.329070518200751e-15 0.000000000000000e+00 -5.329070518200751e-15 9.974374131958704e+02 0.000000000000000e+00 0.000000000000000e+00 0.000000000000000e+00 1.000000000000000e+00
3.562586804129690e+00 -2.664535259100376e-15 0.000000000000000e+00 -2.664535259100376e-15 9.974374131958704e+02 0.000000000000000e+00 0.000000000000000e+00 0.000000000000000e+00 1.000000000000000e+00
1.373550680925228e+01 -1.000333833322140e+02 0.000000000000000e+00 -1.000333833322140e+02 9.872644931907477e+02 0.000000000000000e+00 0.000000000000000e+00 0.000000000000000e+00 1.000000000000000e+00
1.373550680925228e+01 -1.000333833322140e+02 0.000000000000000e+00 -1.000333833322140e+02 9.872644931907477e+02 0.000000000000000e+00 0.000000000000000e+00 0.000000000000000e+00 1.000000000000000e+00
3.562586804129691e+00 -5.329070518200751e-15 0.000000000000000e+00 -5.329070518200751e-15 9.974374131958704e+02 0.000000000000000e+00 0.000000000000000e+00 0.000000000000000e+00 1.000000000000000e+00
3.562586804129690e+00 -2.664535259100376e-15 0.000000000000000e+00 -2.664535259100376e-15 9.974374131958704e+02 0.000000000000000e+00 0.000000000000000e+00 0.000000000000000e+00 1.000000000000000e+00
1.373550680925228e+01 -1.000333833322140e+02 0.000000000000000e+00 -1.000333833322140e+02 9.872644931907478e+02 0.000000000000000e+00 0.000000000000000e+00 0.000000000000000e+00 1.000000000000000e+00
1.373550680925228e+01 -1.000333833322140e+02 0.000000000000000e+00 -1.000333833322140e+02 9.872644931907478e+02 0.000000000000000e+00 0.000000000000000e+00 0.000000000000000e+00 1.000000000000000e+00
3.562586804129690e+00 -5.329070518200751e-15 0.000000000000000e+00 -5.329070518200751e-15 9.974374131958704e+02 0.000000000000000e+00 0.000000000000000e+00 0.000000000000000e+00 1.000000000000000e+00
3.562586804129690e+00 -1.776356839400250e-15 0.000000000000000e+00 -1.776356839400250e-15 9.974374131958704e+02 0.000000000000000e+00 0.000000000000000e+00 0.000000000000000e+00 1.000000000000000e+00
1.373550680925228e+01 -1.000333833322140e+02 0.000000000000000e+00 -1.000333833322140e+02 9.872644931907478e+02 0.000000000000000e+00 0.000000000000000e+00 0.000000000000000e+00 1.000000000000000e+00
1.373550680925228e+01 -1.000333833322140e+02 0.000000000000000e+00 -1.000333833322140e+02 9.872644931907478e+02 0.000000000000000e+00 0.000000000000000e+00 0.000000000000000e+00 1.000000000000000e+00
3.562586804129690e+00 -5.329070518200751e-15 0.000000000000000e+00 -5.329070518200751e-15 9.974374131958704e+02 0.000000000000000e+00 0.000000000000000e+00 0.000000000000000e+00 1.000000000000000e+00
3.562586804129690e+00 -1.776356839400250e-15 0.000000000000000e+00 -1.776356839400250e-15 9.974374131958704e+02 0.000000000000000e+00 0.000000000000000e+00 0.000000000000000e+00 1.000000000000000e+00
1.373550680925228e+01 -1.000333833322139e+02 0.000000000000000e+00 -1.000333833322139e+02 9.872644931907477e+02 0.000000000000000e+00 0.000000000000000e+00 0.000000000000000e+00 1.000000000000000e+00
1.373550680925228e+01 -1.000333833322140e+02 0.000000000000000e+00 -1.000333833322140e+02 9.872644931907477e+02 0.000000000000000e+00 0.000000000000000e+00 0.000000000000000e+00 1.000000000000000e+00
3.562586804129690e+00 -4.440892098500626e-15 0.000000000000000e+00 -4.440892098500626e-15 9.974374131958704e+02 0.000000000000000e+00 0.000000000000000e+00 0.000000000000000e+00 1.000000000000000e+00
3.562586804129689e+00 1.776356839400250e-15 0.000000000000000e+00 1.776356839400250e-15 9.974374131958704e+02 0.000000000000000e+00 0.000000000000000e+00 0.000000000000000e+00 1.000000000000000e+00
1.373550680925228e+01 -1.000333833322139e+02 0.000000000000000e+00 -1.000333833322139e+02 9.872644931907477e+02 0.000000000000000e+00 0.000000000000000e+00 0.000000000000000e+00 1.000000000000000e+00
1.373550680925228e+01 -1.000333833322140e+02 0.000000000000000e+00 -1.000333833322140e+02 9.872644931907477e+02 0.000000000000000e+00 0.000000000000000e+00 0.000000000000000e+00 1.000000000000000e+00
3.562586804129690e+00 -4.440892098500626e-15 0.000000000000000e+00 -4.440892098500626e-15 9.974374131958704e+02 0.000000000000000e+00 0.000000000000000e+00 0.000000000000000e+00 1.000000000000000e+00
3.562586804129689e+00 1.776356839400250e-15 0.000000000000000e+00 1.776356839400250e-15 9.974374131958704e+02 0.000000000000000e+00 0.000000000000000e+00 0.000000000000000e+00 1.000000000000000e+00
1.373572197978054e+01 -1.000344491650121e+02 0.000000000000000e+00 -1.000344491650121e+02 9.872642780202194e+02 0.000000000000000e+00 0.000000000000000e+00 0.000000000000000e+00 1.000000000000000e+00
1.373572197978055e+01 -1.000344491650122e+02 0.000000000000000e+00 -1.000344491650122e+02 9.872642780202194e+02 0.000000000000000e+00 0.000000000000000e+00 0.000000000000000e+00 1.000000000000000e+00
3.562701161463810e+00 -1.154631945610163e-14 0.000000000000000e+00 -1.065814103640150e-14 9.974372988385362e+02 0.000000000000000e+00 0.000000000000000e+00 0.000000000000000e+00 1.000000000000000e+00
3.562701161463809e+00 -8.881784197001252e-16 0.000000000000000e+00 -1.776356839400250e-15 9.974372988385362e+02 0.000000000000000e+00 0.000000000000000e+00 0.000000000000000e+00 1.000000000000000e+00
1.373572197978054e+01 -1.000344491650121e+02 0.000000000000000e+00 -1.000344491650121e+02 9.872642780202194e+02 0.000000000000000e+00 0.000000000000000e+00 0.000000000000000e+00 1.000000000000000e+00
1.373572197978055e+01 -1.000344491650122e+02 0.000000000000000e+00 -1.000344491650122e+02 9.872642780202194e+02 0.000000000000000e+00 0.000000000000000e+00 0.000000000000000e+00 1.000000000000000e+00
3.562701161463810e+00 -1.154631945610163e-14 0.000000000000000e+00 -1.065814103640150e-14 9.974372988385362e+02 0.000000000000000e+00 0.000000000000000e+00 0.000000000000000e+00 1.000000000000000e+00
3.562701161463809e+00 -8.881784197001252e-16 0.000000000000000e+00 -1.776356839400250e-15 9.974372988385362e+02 0.000000000000000e+00 0.000000000000000e+00 0.000000000000000e+00 1.000000000000000e+00
1.373593715030881e+01 -1.000355149978104e+02 0.000000000000000e+00 -1.000355149978104e+02 9.872640628496912e+02 0.000000000000000e+00 0.000000000000000e+00 0.000000000000000e+00 1.000000000000000e+00
1.373593715030882e+01 -1.000355149978104e+02 0.000000000000000e+00 -1.000355149978104e+02 9.872640628496912e+02 0.000000000000000e+00 0.000000000000000e+00 0.000000000000000e+00 1.000000000000000e+00
3.562815518797930e+00 -1.065814103640150e-14 0.000000000000000e+00 -1.421085471520200e-14 9.974371844812021e+02 0.000000000000000e+00 0.000000000000000e+00 0.000000000000000e+00 1.000000000000000e+00
3.562815518797930e+00 -1.776356839400250e-15 0.000000000000000e+00 -1.776356839400250e-15 9.974371844812021e+02 0.000000000000000e+00 0.000000000000000e+00 0.000000000000000e+00 1.000000000000000e+00
1.373588749983719e+01 -1.000352690550670e+02 0.000000000000000e+00 -1.000352690550670e+02 9.872641125001628e+02 0.000000000000000e+00 0.000000000000000e+00 0.000000000000000e+00 1.000000000000000e+00
1.373588749983718e+01 -1.000352690550669e+02 0.000000000000000e+00 -1.000352690550669e+02 9.872641125001628e+02 0.000000000000000e+00 0.000000000000000e+00 0.000000000000000e+00 1.000000000000000e+00
3.562789129165986e+00 2.309263891220326e-14 0.000000000000000e+00 2.131628207280301e-14 9.974372108708342e+02 0.000000000000000e+00 0.000000000000000e+00 0.000000000000000e+00 1.000000000000000e+00
3.562789129165986e+00 1.598721155460225e-14 0.000000000000000e+00 1.598721155460225e-14 9.974372108708342e+02 0.000000000000000e+00 0.000000000000000e+00 0.000000000000000e+00 1.000000000000000e+00
1.373569715454473e+01 -1.000343261936405e+02 0.000000000000000e+00 -1.000343261936405e+02 9.872643028454552e+02 0.000000000000000e+00 0.000000000000000e+00 0.000000000000000e+00 1.000000000000000e+00
1.373569715454473e+01 -1.000343261936405e+02 0.000000000000000e+00 -1.000343261936405e+02 9.872643028454554e+02 0.000000000000000e+00 0.000000000000000e+00 0.000000000000000e+00 1.000000000000000e+00
3.562687966647839e+00 1.065814103640150e-14 0.000000000000000e+00 1.065814103640150e-14 9.974373120333522e+02 0.000000000000000e+00 0.000000000000000e+00 0.000000000000000e+00 1.000000000000000e+00
3.562687966647839e+00 9.769962616701378e-15 0.000000000000000e+00 9.769962616701378e-15 9.974373120333522e+02 0.000000000000000e+00 0.000000000000000e+00 0.000000000000000e+00 1.000000000000000e+00
1.373569715454473e+01 -1.000343261936405e+02 0.000000000000000e+00 -1.000343261936405e+02 9.872643028454552e+02 0.000000000000000e+00 0.000000000000000e+00 0.000000000000000e+00 1.000000000000000e+00
1.373569715454473e+01 -1.000343261936405e+02 0.000000000000000e+00 -1.000343261936405e+02 9.872643028454554e+02 0.000000000000000e+00 0.000000000000000e+00 0.000000000000000e+00 1.000000000000000e+00
3.562687966647839e+00 1.065814103640150e-14 0.000000000000000e+00 1.065814103640150e-14 9.974373120333522e+02 0.000000000000000e+00 0.000000000000000e+00 0.000000000000000e+00 1.000000000000000e+00
3.562687966647839e+00 9.769962616701378e-15 0.000000000000000e+00 9.769962616701378e-15 9.974373120333522e+02 0.000000000000000e+00 0.000000000000000e+00 0.000000000000000e+00 1.000000000000000e+00
1.373550680925228e+01 -1.000333833322140e+02 0.000000000000000e+00 -1.000333833322140e+02 9.872644931907477e+02 0.000000000000000e+00 0.000000000000000e+00 0.000000000000000e+00 1.000000000000000e+00
1.373550680925228e+01 -1.000333833322140e+02 0.000000000000000e+00 -1.000333833322140e+02 9.872644931907477e+02 0.000000000000000e+00 0.000000000000000e+00 0.000000000000000e+00 1.000000000000000e+00
3.562586804129691e+00 -5.329070518200751e-15 0.000000000000000e+00 -5.329070518200751e-15 9.974374131958704e+02 0.000000000000000e+00 0.000000000000000e+00 0.000000000000000e+00 1.000000000000000e+00
3.562586804129691e+00 -5.329070518200751e-15 0.000000000000000e+00 -5.329070518200751e-15 9.974374131958704e+02 0.000000000000000e+00 0.000000000000000e+00 0.000000000000000e+00 1.000000000000000e+00
1.373550680925228e+01 -1.000333833322140e+02 0.000000000000000e+00 -1.000333833322140e+02 9.872644931907477e+02 0.000000000000000e+00 0.000000000000000e+00 0.000000000000000e+00 1.000000000000000e+00
1.373550680925228e+01 -1.000333833322140e+02 0.000000000000000e+00 -1.000333833322140e+02 9.872644931907477e+02 0.000000000000000e+00 0.000000000000000e+00 0.000000000000000e+00 1.000000000000000e+00
3.562586804129691e+00 -5.329070518200751e-15 0.000000000000000e+00 -5.329070518200751e-15 9.974374131958704e+02 0.000000000000000e+00 0.000000000000000e+00 0.000000000000000e+00 1.000000000000000e+00
3.562586804129691e+00 -5.329070518200751e-15 0.000000000000000e+00 -5.329070518200751e-15 9.974374131958704e+02 0.000000000000000e+00 0.000000000000000e+00 0.000000000000000e+00 1.000000000000000e+00
1.373550680925228e+01 -1.000333833322140e+02 0.000000000000000e+00 -1.000333833322140e+02 9.872644931907478e+02 0.000000000000000e+00 0.000000000000000e+00 0.000000000000000e+00 1.000000000000000e+00
1.373550680925228e+01 -1.000333833322140e+02 0.000000000000000e+00 -1.000333833322140e+02 9.872644931907478e+02 0.000000000000000e+00 0.000000000000000e+00 0.000000000000000e+00 1.000000000000000e+00
3.562586804129690e+00 -1.065814103640150e-14 0.000000000000000e+00 -1.065814103640150e-14 9.974374131958704e+02 0.000000000000000e+00 0.000000000000000e+00 0.000000000000000e+00 1.000000000000000e+00
3.562586804129690e+00 -5.329070518200751e-15 0.000000000000000e+00 -5.329070518200751e-15 9.974374131958704e+02 0.000000000000000e+00 0.000000000000000e+00 0.000000000000000e+00 1.000000000000000e+00
1.373550680925228e+01 -1.000333833322140e+02 0.000000000000000e+00 -1.000333833322140e+02 9.872644931907478e+02 0.000000000000000e+00 0.000000000000000e+00 0.000000000000000e+00 1.000000000000000e+00
1.373550680925228e+01 -1.000333833322140e+02 0.000000000000000e+00 -1.000333833322140e+02 9.872644931907478e+02 0.000000000000000e+00 0.000000000000000e+00 0.000000000000000e+00 1.000000000000000e+00
3.562586804129690e+00 -1.065814103640150e-14 0.000000000000000e+00 -1.065814103640150e-14 9.974374131958704e+02 0.000000000000000e+00 0.000000000000000e+00 0.000000000000000e+00 1.000000000000000e+00
3.562586804129690e+00 -5.329070518200751e-15 0.000000000000000e+00 -5.329070518200751e-15 9.974374131958704e+02 0.000000000000000e+00 0.000000000000000e+00 0.000000000000000e+00 1.000000000000000e+00
1.373550680925228e+01 -1.000333833322140e+02 0.000000000000000e+00 -1.000333833322140e+02 9.872644931907477e+02 0.000000000000000e+00 0.000000000000000e+00 0.000000000000000e+00 1.000000000000000e+00
1.373550680925229e+01 -1.000333833322140e+02 0.000000000000000e+00 -1.000333833322140e+02 9.872644931907477e+02 0.000000000000000e+00 0.000000000000000e+00 0.000000000000000e+00 1.000000000000000e+00
3.562586804129690e+00 -1.865174681370263e-14 0.000000000000000e+00 -1.865174681370263e-14 9.974374131958704e+02 0.000000000000000e+00 0.000000000000000e+00 0.000000000000000e+00 1.000000000000000e+00
3.562586804129690e+00 -4.440892098500626e-15 0.000000000000000e+00 -4.440892098500626e-15 9.974374131958704e+02 0.000000000000000e+00 0.000000000000000e+00 0.000000000000000e+00 1.000000000000000e+00
1.373550680925228e+01 -1.000333833322140e+02 0.000000000000000e+00 -1.000333833322140e+02 9.872644931907477e+02 0.000000000000000e+00 0.000000000000000e+00 0.000000000000000e+00 1.000000000000000e+00
1.373550680925229e+01 -1.000333833322140e+02 0.000000000000000e+00 -1.000333833322140e+02 9.872644931907477e+02 0.000000000000000e+00 0.000000000000000e+00 0.000000000000000e+00 1.000000000000000e+00
3.562586804129690e+00 -1.865174681370263e-14 0.000000000000000e+00 -1.865174681370263e-14 9.974374131958704e+02 0.000000000000000e+00 0.000000000000000e+00 0.000000000000000e+00 1.000000000000000e+00
3.562586804129690e+00 -4.440892098500626e-15 0.000000000000000e+00 -4.440892098500626e-15 9.974374131958704e+02 0.000000000000000e+00 0.000000000000000e+00 0.000000000000000e+00 1.000000000000000e+00
1.373572197978055e+01 -1.000344491650122e+02 0.000000000000000e+00 -1.000344491650122e+02 9.872642780202194e+02 0.000000000000000e+00 0.000000000000000e+00 0.000000000000000e+00 1.000000000000000e+00
1.373572197978056e+01 -1.000344491650122e+02 0.000000000000000e+00 -1.000344491650122e+02 9.872642780202194e+02 0.000000000000000e+00 0.000000000000000e+00 0.000000000000000e+00 1.000000000000000e+00
3.562701161463810e+00 -2.220446049250313e-14 0.000000000000000e+00 -2.309263891220326e-14 9.974372988385362e+02 0.000000000000000e+00 0.000000000000000e+00 0.000000000000000e+00 1.000000000000000e+00
3.562701161463810e+00 -1.154631945610163e-14 0.000000000000000e+00 -1.065814103640150e-14 9.974372988385362e+02 0.000000000000000e+00 0.000000000000000e+00 0.000000000000000e+00 1.000000000000000e+00
1.373572197978055e+01 -1.000344491650122e+02 0.000000000000000e+00 -1.000344491650122e+02 9.872642780202194e+02 0.000000000000000e+00 0.000000000000000e+00 0.000000000000000e+00 1.000000000000000e+00
1.373572197978056e+01 -1.000344491650122e+02 0.000000000000000e+00 -1.000344491650122e+02 9.872642780202194e+02 0.000000000000000e+00 0.000000000000000e+00 0.000000000000000e+00 1.000000000000000e+00
3.562701161463810e+00 -2.220446049250313e-14 0.000000000000000e+00 -2.309263891220326e-14 9.974372988385362e+02 0.000000000000000e+00 0.000000000000000e+00 0.000000000000000e+00 1.000000000000000e+00
3.562701161463810e+00 -1.154631945610163e-14 0.000000000000000e+00 -1.065814103640150e-14 9.974372988385362e+02 0.000000000000000e+00 0.000000000000000e+00 0.000000000000000e+00 1.000000000000000e+00
1.373593715030882e+01 -1.000355149978104e+02 0.000000000000000e+00 -1.000355149978104e+02 9.872640628496912e+02 0.000000000000000e+00 0.000000000000000e+00 0.000000000000000e+00 1.000000000000000e+00
1.373593715030882e+01 -1.000355149978104e+02 0.000000000000000e+00 -1.000355149978104e+02 9.872640628496912e+02 0.000000000000000e+00 0.000000000000000e+00 0.000000000000000e+00 1.000000000000000e+00
3.562815518797930e+00 -2.309263891220326e-14 0.000000000000000e+00 -1.953992523340276e-14 9.974371844812021e+02 0.000000000000000e+00 0.000000000000000e+00 0.000000000000000e+00 1.000000000000000e+00
3.562815518797930e+00 -1.065814103640150e-14 0.000000000000000e+00 -1.421085471520200e-14 9.974371844812021e+02 0.000000000000000e+00 0.000000000000000e+00 0.000000000000000e+00 1.000000000000000e+00
1.373588749983718e+01 -1.000352690550669e+02 0.000000000000000e+00 -1.000352690550669e+02 9.872641125001628e+02 0.000000000000000e+00 0.000000000000000e+00 0.000000000000000e+00 1.000000000000000e+00
1.373588749983718e+01 -1.000352690550669e+02 0.000000000000000e+00 -1.000352690550669e+02 9.872641125001629e+02 0.000000000000000e+00 0.000000000000000e+00 0.000000000000000e+00 1.000000000000000e+00
3.562789129165986e+00 2.486899575160351e-14 0.000000000000000e+00 2.131628207280301e-14 9.974372108708342e+02 0.000000000000000e+00 0.000000000000000e+00 0.000000000000000e+00 1.000000000000000e+00