<?xml version="1.0" ?> 
<!-- 
# vtk DataFile Version 3.0
-->
<VTKFile type="UnstructuredGrid" version="0.1" compressor="vtkZLibDataCompressor" byte_order="LittleEndian">
  <UnstructuredGrid>
    <FieldData>
      <DataArray type="Float64" Name="TIME" NumberOfTuples="1" format="ascii">
9.999999999999999e-02 
      </DataArray>
    </FieldData>

    <Piece NumberOfPoints="600" NumberOfCells="75" >
      <Points>
        <DataArray type="Float64" NumberOfComponents="3" format="ascii">
-5.000000000000000e+00 -5.000000000000000e+00 5.000000000000000e+00
-5.000000000000000e+00 -5.000000000000000e+00 3.000000000000000e+00
-5.000000000000000e+00 -3.000000000000000e+00 3.000000000000000e+00
-5.000000000000000e+00 -3.000000000000000e+00 5.000000000000000e+00
-3.000000000000000e+00 -5.000000000000000e+00 5.000000000000000e+00
-3.000000000000000e+00 -5.000000000000000e+00 3.000000000000000e+00
-3.000000000000000e+00 -3.000000000000000e+00 3.000000000000000e+00
-3.000000000000000e+00 -3.000000000000000e+00 4.999999999999999e+00
-5.000000000000000e+00 -5.000000000000000e+00 3.000000000000000e+00
-5.000000000000000e+00 -5.000000000000000e+00 1.000000000000000e+00
-5.000000000000000e+00 -3.000000000000000e+00 1.000000000000000e+00
-5.000000000000000e+00 -3.000000000000000e+00 3.000000000000000e+00
-3.000000000000000e+00 -5.000000000000000e+00 3.000000000000000e+00
-3.000000000000000e+00 -5.000000000000000e+00 1.000000000000000e+00
-3.000000000000000e+00 -3.000000000000000e+00 1.000000000000000e+00
-3.000000000000000e+00 -3.000000000000000e+00 3.000000000000000e+00
-5.000000000000000e+00 -5.000000000000000e+00 1.000000000000000e+00
-5.000000000000000e+00 -5.000000000000000e+00 -1.000000000000000e+00
-5.000000000000000e+00 -3.000000000000000e+00 -1.000000000000000e+00
-5.000000000000000e+00 -3.000000000000000e+00 1.000000000000000e+00
-3.000000000000000e+00 -5.000000000000000e+00 1.000000000000000e+00
-3.000000000000000e+00 -5.000000000000000e+00 -1.000000000000000e+00
-3.000000000000000e+00 -3.000000000000000e+00 -1.000000000000000e+00
-3.000000000000000e+00 -3.000000000000000e+00 1.000000000000000e+00
-5.000000000000000e+00 -3.000000000000000e+00 5.000000000000000e+00
-5.000000000000000e+00 -3.000000000000000e+00 3.000000000000000e+00
-5.000000000000000e+00 -1.000000000000000e+00 3.000000000000000e+00
-5.000000000000000e+00 -1.000000000000000e+00 5.000000000000000e+00
-3.000000000000000e+00 -3.000000000000000e+00 4.999999999999999e+00
-3.000000000000000e+00 -3.000000000000000e+00 3.000000000000000e+00
-3.000000000000000e+00 -1.000000000000001e+00 3.000000000000000e+00
-3.000000000000000e+00 -1.000000000000000e+00 5.000000000000000e+00
-5.000000000000000e+00 -3.000000000000000e+00 3.000000000000000e+00
-5.000000000000000e+00 -3.000000000000000e+00 1.000000000000000e+00
-5.000000000000000e+00 -1.000000000000000e+00 1.000000000000000e+00
-5.000000000000000e+00 -1.000000000000000e+00 3.000000000000000e+00
-3.000000000000000e+00 -3.000000000000000e+00 3.000000000000000e+00
-3.000000000000000e+00 -3.000000000000000e+00 1.000000000000000e+00
-3.000000000000000e+00 -1.000000000000000e+00 1.000000000000000e+00
-3.000000000000000e+00 -1.000000000000001e+00 3.000000000000000e+00
-5.000000000000000e+00 -3.000000000000000e+00 1.000000000000000e+00
-5.000000000000000e+00 -3.000000000000000e+00 -1.000000000000000e+00
-5.000000000000000e+00 -1.000000000000000e+00 -1.000000000000000e+00
-5.000000000000000e+00 -1.000000000000000e+00 1.000000000000000e+00
-3.000000000000000e+00 -3.000000000000000e+00 1.000000000000000e+00
-3.000000000000000e+00 -3.000000000000000e+00 -1.000000000000000e+00
-3.000000000000000e+00 -1.000000000000000e+00 -1.000000000000000e+00
-3.000000000000000e+00 -1.000000000000000e+00 1.000000000000000e+00
-5.000000000000000e+00 -1.000000000000000e+00 5.000000000000000e+00
-5.000000000000000e+00 -1.000000000000000e+00 3.000000000000000e+00
-5.000000000000000e+00 1.000000000000000e+00 3.000000000000000e+00
-5.000000000000000e+00 1.000000000000000e+00 5.000000000000000e+00
-3.000000000000000e+00 -1.000000000000000e+00 5.000000000000000e+00
-3.000000000000000e+00 -1.000000000000001e+00 3.000000000000000e+00
-3.000000000000000e+00 1.000000000000000e+00 3.000000000000000e+00
-3.000000000000000e+00 1.000000000000000e+00 5.000000000000000e+00
-5.000000000000000e+00 -1.000000000000000e+00 3.000000000000000e+00
-5.000000000000000e+00 -1.000000000000000e+00 1.000000000000000e+00
-5.000000000000000e+00 1.000000000000000e+00 1.000000000000000e+00
-5.000000000000000e+00 1.000000000000000e+00 3.000000000000000e+00
-3.000000000000000e+00 -1.000000000000001e+00 3.000000000000000e+00
-3.000000000000000e+00 -1.000000000000000e+00 1.000000000000000e+00
-3.000000000000000e+00 1.000000000000000e+00 1.000000000000000e+00
-3.000000000000000e+00 1.000000000000000e+00 3.000000000000000e+00
-5.000000000000000e+00 -1.000000000000000e+00 1.000000000000000e+00
-5.000000000000000e+00 -1.000000000000000e+00 -1.000000000000000e+00
-5.000000000000000e+00 1.000000000000000e+00 -1.000000000000000e+00
-5.000000000000000e+00 1.000000000000000e+00 1.000000000000000e+00
-3.000000000000000e+00 -1.000000000000000e+00 1.000000000000000e+00
-3.000000000000000e+00 -1.000000000000000e+00 -1.000000000000000e+00
-3.000000000000000e+00 1.000000000000000e+00 -1.000000000000000e+00
-3.000000000000000e+00 1.000000000000000e+00 1.000000000000000e+00
-5.000000000000000e+00 1.000000000000000e+00 5.000000000000000e+00
-5.000000000000000e+00 1.000000000000000e+00 3.000000000000000e+00
-5.000000000000000e+00 3.000000000000000e+00 3.000000000000000e+00
-5.000000000000000e+00 3.000000000000000e+00 5.000000000000000e+00
-3.000000000000000e+00 1.000000000000000e+00 5.000000000000000e+00
-3.000000000000000e+00 1.000000000000000e+00 3.000000000000000e+00
-3.000000000000000e+00 3.000000000000000e+00 3.000000000000000e+00
-3.000000000000000e+00 3.000000000000000e+00 5.000000000000000e+00
-5.000000000000000e+00 1.000000000000000e+00 3.000000000000000e+00
-5.000000000000000e+00 1.000000000000000e+00 1.000000000000000e+00
-5.000000000000000e+00 3.000000000000000e+00 1.000000000000000e+00
-5.000000000000000e+00 3.000000000000000e+00 3.000000000000000e+00
-3.000000000000000e+00 1.000000000000000e+00 3.000000000000000e+00
-3.000000000000000e+00 1.000000000000000e+00 1.000000000000000e+00
-3.000000000000000e+00 3.000000000000000e+00 1.000000000000000e+00
-3.000000000000000e+00 3.000000000000000e+00 3.000000000000000e+00
-5.000000000000000e+00 1.000000000000000e+00 1.000000000000000e+00
-5.000000000000000e+00 1.000000000000000e+00 -1.000000000000000e+00
-5.000000000000000e+00 3.000000000000000e+00 -1.000000000000000e+00
-5.000000000000000e+00 3.000000000000000e+00 1.000000000000000e+00
-3.000000000000000e+00 1.000000000000000e+00 1.000000000000000e+00
-3.000000000000000e+00 1.000000000000000e+00 -1.000000000000000e+00
-3.000000000000000e+00 3.000000000000000e+00 -9.999999999999999e-01
-3.000000000000000e+00 3.000000000000000e+00 1.000000000000000e+00
-5.000000000000000e+00 3.000000000000000e+00 5.000000000000000e+00
-5.000000000000000e+00 3.000000000000000e+00 3.000000000000000e+00
-5.000000000000000e+00 5.000000000000000e+00 3.000000000000000e+00
-5.000000000000000e+00 5.000000000000000e+00 5.000000000000000e+00
-3.000000000000000e+00 3.000000000000000e+00 5.000000000000000e+00
-3.000000000000000e+00 3.000000000000000e+00 3.000000000000000e+00
-3.000000000000000e+00 4.999999999999999e+00 3.000000000000000e+00
-3.000000000000000e+00 5.000000000000000e+00 5.000000000000000e+00
-5.000000000000000e+00 3.000000000000000e+00 3.000000000000000e+00
-5.000000000000000e+00 3.000000000000000e+00 1.000000000000000e+00
-5.000000000000000e+00 5.000000000000000e+00 1.000000000000000e+00
-5.000000000000000e+00 5.000000000000000e+00 3.000000000000000e+00
-3.000000000000000e+00 3.000000000000000e+00 3.000000000000000e+00
-3.000000000000000e+00 3.000000000000000e+00 1.000000000000000e+00
-3.000000000000000e+00 5.000000000000000e+00 1.000000000000000e+00
-3.000000000000000e+00 4.999999999999999e+00 3.000000000000000e+00
-5.000000000000000e+00 3.000000000000000e+00 1.000000000000000e+00
-5.000000000000000e+00 3.000000000000000e+00 -1.000000000000000e+00
-5.000000000000000e+00 5.000000000000000e+00 -1.000000000000000e+00
-5.000000000000000e+00 5.000000000000000e+00 1.000000000000000e+00
-3.000000000000000e+00 3.000000000000000e+00 1.000000000000000e+00
-3.000000000000000e+00 3.000000000000000e+00 -9.999999999999999e-01
-3.000000000000000e+00 5.000000000000000e+00 -1.000000000000000e+00
-3.000000000000000e+00 5.000000000000000e+00 1.000000000000000e+00
-3.000000000000000e+00 -5.000000000000000e+00 5.000000000000000e+00
-3.000000000000000e+00 -5.000000000000000e+00 3.000000000000000e+00
-3.000000000000000e+00 -3.000000000000000e+00 3.000000000000000e+00
-3.000000000000000e+00 -3.000000000000000e+00 4.999999999999999e+00
-1.000000000000000e+00 -5.000000000000000e+00 5.000000000000000e+00
-1.000000000000000e+00 -5.000000000000000e+00 3.000000000000000e+00
-1.000000000000000e+00 -3.000000000000000e+00 3.000000000000000e+00
-1.000000000000000e+00 -3.000000000000000e+00 5.000000000000000e+00
-3.000000000000000e+00 -5.000000000000000e+00 3.000000000000000e+00
-3.000000000000000e+00 -5.000000000000000e+00 1.000000000000000e+00
-3.000000000000000e+00 -3.000000000000000e+00 1.000000000000000e+00
-3.000000000000000e+00 -3.000000000000000e+00 3.000000000000000e+00
-1.000000000000000e+00 -5.000000000000000e+00 3.000000000000000e+00
-1.000000000000000e+00 -5.000000000000000e+00 1.000000000000000e+00
-1.000000000000000e+00 -3.000000000000000e+00 1.000000000000000e+00
-1.000000000000000e+00 -3.000000000000000e+00 3.000000000000000e+00
-3.000000000000000e+00 -5.000000000000000e+00 1.000000000000000e+00
-3.000000000000000e+00 -5.000000000000000e+00 -1.000000000000000e+00
-3.000000000000000e+00 -3.000000000000000e+00 -1.000000000000000e+00
-3.000000000000000e+00 -3.000000000000000e+00 1.000000000000000e+00
[...]
  <PointData>
        <DataArray type="Float64" Name="displacement" NumberOfComponents="3" format="ascii">
0.000000000000000e+00 0.000000000000000e+00 0.000000000000000e+00
0.000000000000000e+00 0.000000000000000e+00 0.000000000000000e+00
0.000000000000000e+00 0.000000000000000e+00 0.000000000000000e+00
0.000000000000000e+00 0.000000000000000e+00 0.000000000000000e+00
-4.538264040059901e-04 0.000000000000000e+00 0.000000000000000e+00
-4.538264040056050e-04 0.000000000000000e+00 0.000000000000000e+00
-4.538264040055560e-04 -7.063873141088731e-16 -6.489659381031534e-16
-4.538264040056711e-04 0.000000000000000e+00 0.000000000000000e+00
0.000000000000000e+00 0.000000000000000e+00 0.000000000000000e+00
0.000000000000000e+00 0.000000000000000e+00 0.000000000000000e+00
0.000000000000000e+00 0.000000000000000e+00 0.000000000000000e+00
0.000000000000000e+00 0.000000000000000e+00 0.000000000000000e+00
-4.538264040056050e-04 0.000000000000000e+00 0.000000000000000e+00
-4.538264040055777e-04 0.000000000000000e+00 0.000000000000000e+00
-4.538264040064241e-04 -3.746618000058497e-16 -2.230401226018463e-17
-4.538264040055560e-04 -7.063873141088731e-16 -6.489659381031534e-16
0.000000000000000e+00 0.000000000000000e+00 0.000000000000000e+00
0.000000000000000e+00 0.000000000000000e+00 0.000000000000000e+00
0.000000000000000e+00 0.000000000000000e+00 0.000000000000000e+00
0.000000000000000e+00 0.000000000000000e+00 0.000000000000000e+00
-4.538264040055777e-04 0.000000000000000e+00 0.000000000000000e+00
-4.538264040063062e-04 0.000000000000000e+00 0.000000000000000e+00
-4.538264040062064e-04 1.767777750412395e-16 -8.048514369125884e-17
-4.538264040064241e-04 -3.746618000058497e-16 -2.230401226018463e-17
0.000000000000000e+00 0.000000000000000e+00 0.000000000000000e+00
0.000000000000000e+00 0.000000000000000e+00 0.000000000000000e+00
0.000000000000000e+00 0.000000000000000e+00 0.000000000000000e+00
0.000000000000000e+00 0.000000000000000e+00 0.000000000000000e+00
-4.538264040056711e-04 0.000000000000000e+00 0.000000000000000e+00
-4.538264040055560e-04 -7.063873141088731e-16 -6.489659381031534e-16
-4.538264040060189e-04 1.103652986670742e-16 6.527006783370345e-16
-4.538264040052291e-04 0.000000000000000e+00 0.000000000000000e+00
0.000000000000000e+00 0.000000000000000e+00 0.000000000000000e+00
0.000000000000000e+00 0.000000000000000e+00 0.000000000000000e+00
0.000000000000000e+00 0.000000000000000e+00 0.000000000000000e+00
0.000000000000000e+00 0.000000000000000e+00 0.000000000000000e+00
-4.538264040055560e-04 -7.063873141088731e-16 -6.489659381031534e-16
-4.538264040064241e-04 -3.746618000058497e-16 -2.230401226018463e-17
-4.538264040062688e-04 -6.765838025000311e-17 -2.039884481794599e-16
-4.538264040060189e-04 1.103652986670742e-16 6.527006783370345e-16
0.000000000000000e+00 0.000000000000000e+00 0.000000000000000e+00
0.000000000000000e+00 0.000000000000000e+00 0.000000000000000e+00
0.000000000000000e+00 0.000000000000000e+00 0.000000000000000e+00
0.000000000000000e+00 0.000000000000000e+00 0.000000000000000e+00
-4.538264040064241e-04 -3.746618000058497e-16 -2.230401226018463e-17
-4.538264040062064e-04 1.767777750412395e-16 -8.048514369125884e-17
-4.538264040060575e-04 1.859644499141998e-16 1.356886324893634e-17
-4.538264040062688e-04 -6.765838025000311e-17 -2.039884481794599e-16
0.000000000000000e+00 0.000000000000000e+00 0.000000000000000e+00
0.000000000000000e+00 0.000000000000000e+00 0.000000000000000e+00
0.000000000000000e+00 0.000000000000000e+00 0.000000000000000e+00
0.000000000000000e+00 0.000000000000000e+00 0.000000000000000e+00
-4.538264040052291e-04 0.000000000000000e+00 0.000000000000000e+00
-4.538264040060189e-04 1.103652986670742e-16 6.527006783370345e-16
-4.538264040058734e-04 1.253566329825049e-16 -1.362239228924210e-16
-4.538264040058554e-04 0.000000000000000e+00 0.000000000000000e+00
0.000000000000000e+00 0.000000000000000e+00 0.000000000000000e+00
0.000000000000000e+00 0.000000000000000e+00 0.000000000000000e+00
0.000000000000000e+00 0.000000000000000e+00 0.000000000000000e+00
0.000000000000000e+00 0.000000000000000e+00 0.000000000000000e+00
-4.538264040060189e-04 1.103652986670742e-16 6.527006783370345e-16
-4.538264040062688e-04 -6.765838025000311e-17 -2.039884481794599e-16
-4.538264040059365e-04 1.258490493956833e-16 -5.338451120181642e-16
-4.538264040058734e-04 1.253566329825049e-16 -1.362239228924210e-16
0.000000000000000e+00 0.000000000000000e+00 0.000000000000000e+00
0.000000000000000e+00 0.000000000000000e+00 0.000000000000000e+00
0.000000000000000e+00 0.000000000000000e+00 0.000000000000000e+00
0.000000000000000e+00 0.000000000000000e+00 0.000000000000000e+00
-4.538264040062688e-04 -6.765838025000311e-17 -2.039884481794599e-16
-4.538264040060575e-04 1.859644499141998e-16 1.356886324893634e-17
-4.538264040060606e-04 2.823663517213395e-17 4.727924158812611e-16
-4.538264040059365e-04 1.258490493956833e-16 -5.338451120181642e-16
0.000000000000000e+00 0.000000000000000e+00 0.000000000000000e+00
0.000000000000000e+00 0.000000000000000e+00 0.000000000000000e+00
0.000000000000000e+00 0.000000000000000e+00 0.000000000000000e+00
0.000000000000000e+00 0.000000000000000e+00 0.000000000000000e+00
-4.538264040058554e-04 0.000000000000000e+00 0.000000000000000e+00
-4.538264040058734e-04 1.253566329825049e-16 -1.362239228924210e-16
-4.538264040058815e-04 -4.187845750439118e-17 8.997922383433520e-17
-4.538264040062813e-04 0.000000000000000e+00 0.000000000000000e+00
0.000000000000000e+00 0.000000000000000e+00 0.000000000000000e+00
0.000000000000000e+00 0.000000000000000e+00 0.000000000000000e+00
0.000000000000000e+00 0.000000000000000e+00 0.000000000000000e+00
0.000000000000000e+00 0.000000000000000e+00 0.000000000000000e+00
-4.538264040058734e-04 1.253566329825049e-16 -1.362239228924210e-16
-4.538264040059365e-04 1.258490493956833e-16 -5.338451120181642e-16
-4.538264040061671e-04 3.012398977285031e-16 4.530082223343134e-18
-4.538264040058815e-04 -4.187845750439118e-17 8.997922383433520e-17
0.000000000000000e+00 0.000000000000000e+00 0.000000000000000e+00
0.000000000000000e+00 0.000000000000000e+00 0.000000000000000e+00
0.000000000000000e+00 0.000000000000000e+00 0.000000000000000e+00
0.000000000000000e+00 0.000000000000000e+00 0.000000000000000e+00
-4.538264040059365e-04 1.258490493956833e-16 -5.338451120181642e-16
-4.538264040060606e-04 2.823663517213395e-17 4.727924158812611e-16
-4.538264040063923e-04 5.285482626847600e-16 -9.003733712997433e-16
-4.538264040061671e-04 3.012398977285031e-16 4.530082223343134e-18
0.000000000000000e+00 0.000000000000000e+00 0.000000000000000e+00
0.000000000000000e+00 0.000000000000000e+00 0.000000000000000e+00
0.000000000000000e+00 0.000000000000000e+00 0.000000000000000e+00
0.000000000000000e+00 0.000000000000000e+00 0.000000000000000e+00
-4.538264040062813e-04 0.000000000000000e+00 0.000000000000000e+00
-4.538264040058815e-04 -4.187845750439118e-17 8.997922383433520e-17
-4.538264040060124e-04 0.000000000000000e+00 0.000000000000000e+00
-4.538264040050324e-04 0.000000000000000e+00 0.000000000000000e+00
0.000000000000000e+00 0.000000000000000e+00 0.000000000000000e+00
0.000000000000000e+00 0.000000000000000e+00 0.000000000000000e+00
0.000000000000000e+00 0.000000000000000e+00 0.000000000000000e+00
0.000000000000000e+00 0.000000000000000e+00 0.000000000000000e+00
-4.538264040058815e-04 -4.187845750439118e-17 8.997922383433520e-17
-4.538264040061671e-04 3.012398977285031e-16 4.530082223343134e-18
-4.538264040059793e-04 0.000000000000000e+00 0.000000000000000e+00
-4.538264040060124e-04 0.000000000000000e+00 0.000000000000000e+00
0.000000000000000e+00 0.000000000000000e+00 0.000000000000000e+00
0.000000000000000e+00 0.000000000000000e+00 0.000000000000000e+00
0.000000000000000e+00 0.000000000000000e+00 0.000000000000000e+00
0.000000000000000e+00 0.000000000000000e+00 0.000000000000000e+00
-4.538264040061671e-04 3.012398977285031e-16 4.530082223343134e-18
-4.538264040063923e-04 5.285482626847600e-16 -9.003733712997433e-16
-4.538264040053909e-04 0.000000000000000e+00 0.000000000000000e+00
-4.538264040059793e-04 0.000000000000000e+00 0.000000000000000e+00
-4.538264040059901e-04 0.000000000000000e+00 0.000000000000000e+00
-4.538264040056050e-04 0.000000000000000e+00 0.000000000000000e+00
-4.538264040055560e-04 -7.063873141088731e-16 -6.489659381031534e-16
-4.538264040056711e-04 0.000000000000000e+00 0.000000000000000e+00
-9.070747024732346e-04 0.000000000000000e+00 0.000000000000000e+00
-9.070747024710772e-04 0.000000000000000e+00 0.000000000000000e+00
-9.070747024716974e-04 3.566590598410387e-16 -1.105663392201275e-15
-9.070747024716131e-04 0.000000000000000e+00 0.000000000000000e+00
-4.538264040056050e-04 0.000000000000000e+00 0.000000000000000e+00
-4.538264040055777e-04 0.000000000000000e+00 0.000000000000000e+00
-4.538264040064241e-04 -3.746618000058497e-16 -2.230401226018463e-17
-4.538264040055560e-04 -7.063873141088731e-16 -6.489659381031534e-16
-9.070747024710772e-04 0.000000000000000e+00 0.000000000000000e+00
-9.070747024728391e-04 0.000000000000000e+00 0.000000000000000e+00
-9.070747024725157e-04 -8.364846204622962e-16 2.941733000660130e-16
-9.070747024716974e-04 3.566590598410387e-16 -1.105663392201275e-15
-4.538264040055777e-04 0.000000000000000e+00 0.000000000000000e+00
-4.538264040063062e-04 0.000000000000000e+00 0.000000000000000e+00
-4.538264040062064e-04 1.767777750412395e-16 -8.048514369125884e-17
-4.538264040064241e-04 -3.746618000058497e-16 -2.230401226018463e-17
-9.070747024728391e-04 0.000000000000000e+00 0.000000000000000e+00
-9.070747024730009e-04 0.000000000000000e+00 0.000000000000000e+00
-9.070747024727678e-04 -1.597613578256863e-17 4.102192730425869e-16
-9.070747024725157e-04 -8.364846204622962e-16 2.941733000660130e-16
-4.538264040056711e-04 0.000000000000000e+00 0.000000000000000e+00
-4.538264040055560e-04 -7.063873141088731e-16 -6.489659381031534e-16
-4.538264040060189e-04 1.103652986670742e-16 6.527006783370345e-16
-4.538264040052291e-04 0.000000000000000e+00 0.000000000000000e+00
-9.070747024716131e-04 0.000000000000000e+00 0.000000000000000e+00
-9.070747024716974e-04 3.566590598410387e-16 -1.105663392201275e-15
-9.070747024720460e-04 -2.811488016460592e-16 5.281085250600487e-16
-9.070747024716087e-04 0.000000000000000e+00 0.000000000000000e+00
-4.538264040055560e-04 -7.063873141088731e-16 -6.489659381031534e-16
-4.538264040064241e-04 -3.746618000058497e-16 -2.230401226018463e-17
-4.538264040062688e-04 -6.765838025000311e-17 -2.039884481794599e-16
-4.538264040060189e-04 1.103652986670742e-16 6.527006783370345e-16
-9.070747024716974e-04 3.566590598410387e-16 -1.105663392201275e-15
-9.070747024725157e-04 -8.364846204622962e-16 2.941733000660130e-16
-9.070747024724026e-04 2.519604487952961e-16 7.232700098712073e-18
-9.070747024720460e-04 -2.811488016460592e-16 5.281085250600487e-16
-4.538264040064241e-04 -3.746618000058497e-16 -2.230401226018463e-17
-4.538264040062064e-04 1.767777750412395e-16 -8.048514369125884e-17
-4.538264040060575e-04 1.859644499141998e-16 1.356886324893634e-17
-4.538264040062688e-04 -6.765838025000311e-17 -2.039884481794599e-16
-9.070747024725157e-04 -8.364846204622962e-16 2.941733000660130e-16
-9.070747024727678e-04 -1.597613578256863e-17 4.102192730425869e-16
-9.070747024718018e-04 8.357133642956256e-16 9.012523665329920e-16
-9.070747024724026e-04 2.519604487952961e-16 7.232700098712073e-18
-4.538264040052291e-04 0.000000000000000e+00 0.000000000000000e+00
-4.538264040060189e-04 1.103652986670742e-16 6.527006783370345e-16
-4.538264040058734e-04 1.253566329825049e-16 -1.362239228924210e-16
-4.538264040058554e-04 0.000000000000000e+00 0.000000000000000e+00
-9.070747024716087e-04 0.000000000000000e+00 0.000000000000000e+00
-9.070747024720460e-04 -2.811488016460592e-16 5.281085250600487e-16
-9.070747024719668e-04 -8.173659089502462e-17 2.306434242064123e-17
-9.070747024716449e-04 0.000000000000000e+00 0.000000000000000e+00
-4.538264040060189e-04 1.103652986670742e-16 6.527006783370345e-16
-4.538264040062688e-04 -6.765838025000311e-17 -2.039884481794599e-16
-4.538264040059365e-04 1.258490493956833e-16 -5.338451120181642e-16
-4.538264040058734e-04 1.253566329825049e-16 -1.362239228924210e-16
-9.070747024720460e-04 -2.811488016460592e-16 5.281085250600487e-16
-9.070747024724026e-04 2.519604487952961e-16 7.232700098712073e-18
-9.070747024718368e-04 -9.945598538990367e-18 -2.827336181754402e-16
-9.070747024719668e-04 -8.173659089502462e-17 2.306434242064123e-17
-4.538264040062688e-04 -6.765838025000311e-17 -2.039884481794599e-16
-4.538264040060575e-04 1.859644499141998e-16 1.356886324893634e-17
-4.538264040060606e-04 2.823663517213395e-17 4.727924158812611e-16
-4.538264040059365e-04 1.258490493956833e-16 -5.338451120181642e-16
-9.070747024724026e-04 2.519604487952961e-16 7.232700098712073e-18
-9.070747024718018e-04 8.357133642956256e-16 9.012523665329920e-16
-9.070747024725827e-04 2.133860967029513e-16 1.482201870391843e-16
-9.070747024718368e-04 -9.945598538990367e-18 -2.827336181754402e-16
-4.538264040058554e-04 0.000000000000000e+00 0.000000000000000e+00
-4.538264040058734e-04 1.253566329825049e-16 -1.362239228924210e-16
-4.538264040058815e-04 -4.187845750439118e-17 8.997922383433520e-17
-4.538264040062813e-04 0.000000000000000e+00 0.000000000000000e+00
-9.070747024716449e-04 0.000000000000000e+00 0.000000000000000e+00
-9.070747024719668e-04 -8.173659089502462e-17 2.306434242064123e-17
-9.070747024725951e-04 -1.040325035782134e-16 5.076005256384841e-17
-9.070747024719476e-04 0.000000000000000e+00 0.000000000000000e+00
-4.538264040058734e-04 1.253566329825049e-16 -1.362239228924210e-16
-4.538264040059365e-04 1.258490493956833e-16 -5.338451120181642e-16
-4.538264040061671e-04 3.012398977285031e-16 4.530082223343134e-18
-4.538264040058815e-04 -4.187845750439118e-17 8.997922383433520e-17
-9.070747024719668e-04 -8.173659089502462e-17 2.306434242064123e-17
-9.070747024718368e-04 -9.945598538990367e-18 -2.827336181754402e-16
-9.070747024722205e-04 5.152456923602691e-16 -3.093635561723916e-17
-9.070747024725951e-04 -1.040325035782134e-16 5.076005256384841e-17
-4.538264040059365e-04 1.258490493956833e-16 -5.338451120181642e-16
-4.538264040060606e-04 2.823663517213395e-17 4.727924158812611e-16
-4.538264040063923e-04 5.285482626847600e-16 -9.003733712997433e-16
-4.538264040061671e-04 3.012398977285031e-16 4.530082223343134e-18
-9.070747024718368e-04 -9.945598538990367e-18 -2.827336181754402e-16
-9.070747024725827e-04 2.133860967029513e-16 1.482201870391843e-16
-9.070747024725876e-04 1.648680044208991e-16 -1.994624339337378e-16
-9.070747024722205e-04 5.152456923602691e-16 -3.093635561723916e-17
-4.538264040062813e-04 0.000000000000000e+00 0.000000000000000e+00
-4.538264040058815e-04 -4.187845750439118e-17 8.997922383433520e-17
-4.538264040060124e-04 0.000000000000000e+00 0.000000000000000e+00
-4.538264040050324e-04 0.000000000000000e+00 0.000000000000000e+00
-9.070747024719476e-04 0.000000000000000e+00 0.000000000000000e+00
-9.070747024725951e-04 -1.040325035782134e-16 5.076005256384841e-17
-9.070747024719912e-04 0.000000000000000e+00 0.000000000000000e+00
-9.070747024722235e-04 0.000000000000000e+00 0.000000000000000e+00
-4.538264040058815e-04 -4.187845750439118e-17 8.997922383433520e-17
-4.538264040061671e-04 3.012398977285031e-16 4.530082223343134e-18
-4.538264040059793e-04 0.000000000000000e+00 0.000000000000000e+00
-4.538264040060124e-04 0.000000000000000e+00 0.000000000000000e+00
-9.070747024725951e-04 -1.040325035782134e-16 5.076005256384841e-17
-9.070747024722205e-04 5.152456923602691e-16 -3.093635561723916e-17
-9.070747024719109e-04 0.000000000000000e+00 0.000000000000000e+00
-9.070747024719912e-04 0.000000000000000e+00 0.000000000000000e+00
-4.538264040061671e-04 3.012398977285031e-16 4.530082223343134e-18
-4.538264040063923e-04 5.285482626847600e-16 -9.003733712997433e-16
-4.538264040053909e-04 0.000000000000000e+00 0.000000000000000e+00
-4.538264040059793e-04 0.000000000000000e+00 0.000000000000000e+00
-9.070747024722205e-04 5.152456923602691e-16 -3.093635561723916e-17
-9.070747024725876e-04 1.648680044208991e-16 -1.994624339337378e-16
-9.070747024720485e-04 0.000000000000000e+00 0.000000000000000e+00
-9.070747024719109e-04 0.000000000000000e+00 0.000000000000000e+00
-9.070747024732346e-04 0.000000000000000e+00 0.000000000000000e+00
-9.070747024710772e-04 0.000000000000000e+00 0.000000000000000e+00
-9.070747024716974e-04 3.566590598410387e-16 -1.105663392201275e-15
-9.070747024716131e-04 0.000000000000000e+00 0.000000000000000e+00
-1.360466801259552e-03 0.000000000000000e+00 0.000000000000000e+00
-1.360466801260537e-03 0.000000000000000e+00 0.000000000000000e+00
-1.360466801260617e-03 5.440281419543477e-16 -2.233946955675838e-16
-1.360466801260838e-03 0.000000000000000e+00 0.000000000000000e+00
-9.070747024710772e-04 0.000000000000000e+00 0.000000000000000e+00
-9.070747024728391e-04 0.000000000000000e+00 0.000000000000000e+00
-9.070747024725157e-04 -8.364846204622962e-16 2.941733000660130e-16
-9.070747024716974e-04 3.566590598410387e-16 -1.105663392201275e-15
-1.360466801260537e-03 0.000000000000000e+00 0.000000000000000e+00
-1.360466801260384e-03 0.000000000000000e+00 0.000000000000000e+00
-1.360466801260517e-03 -1.821693858237830e-16 -1.438659725145900e-16
-1.360466801260617e-03 5.440281419543477e-16 -2.233946955675838e-16
-9.070747024728391e-04 0.000000000000000e+00 0.000000000000000e+00
-9.070747024730009e-04 0.000000000000000e+00 0.000000000000000e+00
-9.070747024727678e-04 -1.597613578256863e-17 4.102192730425869e-16
-9.070747024725157e-04 -8.364846204622962e-16 2.941733000660130e-16
-1.360466801260384e-03 0.000000000000000e+00 0.000000000000000e+00
-1.360466801260880e-03 0.000000000000000e+00 0.000000000000000e+00
-1.360466801260842e-03 6.854490348985413e-16 2.623434596676117e-16
-1.360466801260517e-03 -1.821693858237830e-16 -1.438659725145900e-16
-9.070747024716131e-04 0.000000000000000e+00 0.000000000000000e+00
-9.070747024716974e-04 3.566590598410387e-16 -1.105663392201275e-15
-9.070747024720460e-04 -2.811488016460592e-16 5.281085250600487e-16
-9.070747024716087e-04 0.000000000000000e+00 0.000000000000000e+00
-1.360466801260838e-03 0.000000000000000e+00 0.000000000000000e+00
-1.360466801260617e-03 5.440281419543477e-16 -2.233946955675838e-16
-1.360466801261966e-03 2.712965770160811e-16 -4.073294277951937e-16
-1.360466801260690e-03 0.000000000000000e+00 0.000000000000000e+00
-9.070747024716974e-04 3.566590598410387e-16 -1.105663392201275e-15
-9.070747024725157e-04 -8.364846204622962e-16 2.941733000660130e-16
-9.070747024724026e-04 2.519604487952961e-16 7.232700098712073e-18
-9.070747024720460e-04 -2.811488016460592e-16 5.281085250600487e-16
-1.360466801260617e-03 5.440281419543477e-16 -2.233946955675838e-16
-1.360466801260517e-03 -1.821693858237830e-16 -1.438659725145900e-16
-1.360466801261159e-03 5.374860847091933e-16 -7.141823840739649e-17
-1.360466801261966e-03 2.712965770160811e-16 -4.073294277951937e-16
-9.070747024725157e-04 -8.364846204622962e-16 2.941733000660130e-16
-9.070747024727678e-04 -1.597613578256863e-17 4.102192730425869e-16
-9.070747024718018e-04 8.357133642956256e-16 9.012523665329920e-16
-9.070747024724026e-04 2.519604487952961e-16 7.232700098712073e-18
-1.360466801260517e-03 -1.821693858237830e-16 -1.438659725145900e-16
-1.360466801260842e-03 6.854490348985413e-16 2.623434596676117e-16
-1.360466801260679e-03 6.948480333283856e-16 6.010424104567725e-17
-1.360466801261159e-03 5.374860847091933e-16 -7.141823840739649e-17
-9.070747024716087e-04 0.000000000000000e+00 0.000000000000000e+00
-9.070747024720460e-04 -2.811488016460592e-16 5.281085250600487e-16
-9.070747024719668e-04 -8.173659089502462e-17 2.306434242064123e-17
-9.070747024716449e-04 0.000000000000000e+00 0.000000000000000e+00
-1.360466801260690e-03 0.000000000000000e+00 0.000000000000000e+00
-1.360466801261966e-03 2.712965770160811e-16 -4.073294277951937e-16
-1.360466801261016e-03 4.659285705939559e-17 1.911372054633900e-16