<?xml version="1.0" ?> 
<!-- 
# vtk DataFile Version 3.0
-->
<VTKFile type="UnstructuredGrid" version="0.1" compressor="vtkZLibDataCompressor" byte_order="LittleEndian">
  <UnstructuredGrid>
    <FieldData>
      <DataArray type="Float64" Name="TIME" NumberOfTuples="1" format="ascii">
9.999999999999999e-02 
      </DataArray>
    </FieldData>

    <Piece NumberOfPoints="400" NumberOfCells="50" >
      <Points>
        <DataArray type="Float64" NumberOfComponents="3" format="ascii">
-5.000000000000000e+00 -5.000000000000000e+00 -1.000000000000000e+00
-5.000000000000000e+00 -5.000000000000000e+00 -3.000000000000000e+00
-5.000000000000000e+00 -3.000000000000000e+00 -3.000000000000000e+00
-5.000000000000000e+00 -3.000000000000000e+00 -1.000000000000000e+00
-3.000000000000000e+00 -5.000000000000000e+00 -1.000000000000000e+00
-3.000000000000000e+00 -5.000000000000000e+00 -3.000000000000000e+00
-3.000000000000000e+00 -3.000000000000000e+00 -3.000000000000000e+00
-3.000000000000000e+00 -3.000000000000000e+00 -1.000000000000000e+00
-5.000000000000000e+00 -5.000000000000000e+00 -3.000000000000000e+00
-5.000000000000000e+00 -5.000000000000000e+00 -5.000000000000000e+00
-5.000000000000000e+00 -3.000000000000000e+00 -5.000000000000000e+00
-5.000000000000000e+00 -3.000000000000000e+00 -3.000000000000000e+00
-3.000000000000000e+00 -5.000000000000000e+00 -3.000000000000000e+00
-3.000000000000000e+00 -5.000000000000000e+00 -5.000000000000000e+00
-3.000000000000000e+00 -3.000000000000000e+00 -5.000000000000000e+00
-3.000000000000000e+00 -3.000000000000000e+00 -3.000000000000000e+00
-5.000000000000000e+00 -3.000000000000000e+00 -1.000000000000000e+00
-5.000000000000000e+00 -3.000000000000000e+00 -3.000000000000000e+00
-5.000000000000000e+00 -1.000000000000000e+00 -3.000000000000000e+00
-5.000000000000000e+00 -1.000000000000000e+00 -1.000000000000000e+00
-3.000000000000000e+00 -3.000000000000000e+00 -1.000000000000000e+00
-3.000000000000000e+00 -3.000000000000000e+00 -3.000000000000000e+00
-3.000000000000000e+00 -1.000000000000000e+00 -3.000000000000000e+00
-3.000000000000000e+00 -1.000000000000000e+00 -1.000000000000000e+00
-5.000000000000000e+00 -3.000000000000000e+00 -3.000000000000000e+00
-5.000000000000000e+00 -3.000000000000000e+00 -5.000000000000000e+00
-5.000000000000000e+00 -1.000000000000000e+00 -5.000000000000000e+00
-5.000000000000000e+00 -1.000000000000000e+00 -3.000000000000000e+00
-3.000000000000000e+00 -3.000000000000000e+00 -3.000000000000000e+00
-3.000000000000000e+00 -3.000000000000000e+00 -5.000000000000000e+00
-3.000000000000000e+00 -1.000000000000000e+00 -5.000000000000000e+00
-3.000000000000000e+00 -1.000000000000000e+00 -3.000000000000000e+00
-5.000000000000000e+00 -1.000000000000000e+00 -1.000000000000000e+00
-5.000000000000000e+00 -1.000000000000000e+00 -3.000000000000000e+00
-5.000000000000000e+00 1.000000000000000e+00 -3.000000000000000e+00
-5.000000000000000e+00 1.000000000000000e+00 -1.000000000000000e+00
-3.000000000000000e+00 -1.000000000000000e+00 -1.000000000000000e+00
-3.000000000000000e+00 -1.000000000000000e+00 -3.000000000000000e+00
-3.000000000000000e+00 1.000000000000000e+00 -3.000000000000000e+00
-3.000000000000000e+00 1.000000000000000e+00 -1.000000000000000e+00
-5.000000000000000e+00 -1.000000000000000e+00 -3.000000000000000e+00
-5.000000000000000e+00 -1.000000000000000e+00 -5.000000000000000e+00
-5.000000000000000e+00 1.000000000000000e+00 -5.000000000000000e+00
-5.000000000000000e+00 1.000000000000000e+00 -3.000000000000000e+00
-3.000000000000000e+00 -1.000000000000000e+00 -3.000000000000000e+00
-3.000000000000000e+00 -1.000000000000000e+00 -5.000000000000000e+00
-3.000000000000000e+00 1.000000000000000e+00 -5.000000000000000e+00
-3.000000000000000e+00 1.000000000000000e+00 -3.000000000000000e+00
-5.000000000000000e+00 1.000000000000000e+00 -1.000000000000000e+00
-5.000000000000000e+00 1.000000000000000e+00 -3.000000000000000e+00
-5.000000000000000e+00 3.000000000000000e+00 -3.000000000000000e+00
-5.000000000000000e+00 3.000000000000000e+00 -1.000000000000000e+00
-3.000000000000000e+00 1.000000000000000e+00 -1.000000000000000e+00
-3.000000000000000e+00 1.000000000000000e+00 -3.000000000000000e+00
-3.000000000000000e+00 3.000000000000000e+00 -3.000000000000000e+00
-3.000000000000000e+00 3.000000000000000e+00 -9.999999999999999e-01
-5.000000000000000e+00 1.000000000000000e+00 -3.000000000000000e+00
-5.000000000000000e+00 1.000000000000000e+00 -5.000000000000000e+00
-5.000000000000000e+00 3.000000000000000e+00 -5.000000000000000e+00
-5.000000000000000e+00 3.000000000000000e+00 -3.000000000000000e+00
-3.000000000000000e+00 1.000000000000000e+00 -3.000000000000000e+00
-3.000000000000000e+00 1.000000000000000e+00 -5.000000000000000e+00
-3.000000000000000e+00 3.000000000000000e+00 -4.999999999999999e+00
-3.000000000000000e+00 3.000000000000000e+00 -3.000000000000000e+00
-5.000000000000000e+00 3.000000000000000e+00 -1.000000000000000e+00
-5.000000000000000e+00 3.000000000000000e+00 -3.000000000000000e+00
-5.000000000000000e+00 5.000000000000000e+00 -3.000000000000000e+00
-5.000000000000000e+00 5.000000000000000e+00 -1.000000000000000e+00
-3.000000000000000e+00 3.000000000000000e+00 -9.999999999999999e-01
-3.000000000000000e+00 3.000000000000000e+00 -3.000000000000000e+00
-3.000000000000000e+00 5.000000000000000e+00 -3.000000000000000e+00
-3.000000000000000e+00 5.000000000000000e+00 -1.000000000000000e+00
-5.000000000000000e+00 3.000000000000000e+00 -3.000000000000000e+00
-5.000000000000000e+00 3.000000000000000e+00 -5.000000000000000e+00
-5.000000000000000e+00 5.000000000000000e+00 -5.000000000000000e+00
-5.000000000000000e+00 5.000000000000000e+00 -3.000000000000000e+00
-3.000000000000000e+00 3.000000000000000e+00 -3.000000000000000e+00
-3.000000000000000e+00 3.000000000000000e+00 -4.999999999999999e+00
-3.000000000000000e+00 5.000000000000000e+00 -5.000000000000000e+00
-3.000000000000000e+00 5.000000000000000e+00 -3.000000000000000e+00
-3.000000000000000e+00 -5.000000000000000e+00 -1.000000000000000e+00
-3.000000000000000e+00 -5.000000000000000e+00 -3.000000000000000e+00
-3.000000000000000e+00 -3.000000000000000e+00 -3.000000000000000e+00
-3.000000000000000e+00 -3.000000000000000e+00 -1.000000000000000e+00
-1.000000000000000e+00 -5.000000000000000e+00 -1.000000000000000e+00
-1.000000000000000e+00 -5.000000000000000e+00 -3.000000000000000e+00
-1.000000000000000e+00 -3.000000000000000e+00 -3.000000000000000e+00
-1.000000000000000e+00 -3.000000000000000e+00 -1.000000000000000e+00
-3.000000000000000e+00 -5.000000000000000e+00 -3.000000000000000e+00
-3.000000000000000e+00 -5.000000000000000e+00 -5.000000000000000e+00
-3.000000000000000e+00 -3.000000000000000e+00 -5.000000000000000e+00
-3.000000000000000e+00 -3.000000000000000e+00 -3.000000000000000e+00
-1.000000000000000e+00 -5.000000000000000e+00 -3.000000000000000e+00
-1.000000000000000e+00 -5.000000000000000e+00 -5.000000000000000e+00
-1.000000000000000e+00 -3.000000000000000e+00 -5.000000000000000e+00
-1.000000000000000e+00 -3.000000000000000e+00 -3.000000000000000e+00
-3.000000000000000e+00 -3.000000000000000e+00 -1.000000000000000e+00
-3.000000000000000e+00 -3.000000000000000e+00 -3.000000000000000e+00
-3.000000000000000e+00 -1.000000000000000e+00 -3.000000000000000e+00
-3.000000000000000e+00 -1.000000000000000e+00 -1.000000000000000e+00
-1.000000000000000e+00 -3.000000000000000e+00 -1.000000000000000e+00
-1.000000000000000e+00 -3.000000000000000e+00 -3.000000000000000e+00
-1.000000000000000e+00 -1.000000000000000e+00 -3.000000000000000e+00
-1.000000000000000e+00 -1.000000000000000e+00 -1.000000000000000e+00
-3.000000000000000e+00 -3.000000000000000e+00 -3.000000000000000e+00
-3.000000000000000e+00 -3.000000000000000e+00 -5.000000000000000e+00
-3.000000000000000e+00 -1.000000000000000e+00 -5.000000000000000e+00
-3.000000000000000e+00 -1.000000000000000e+00 -3.000000000000000e+00
-1.000000000000000e+00 -3.000000000000000e+00 -3.000000000000000e+00
-1.000000000000000e+00 -3.000000000000000e+00 -5.000000000000000e+00
-1.000000000000000e+00 -1.000000000000000e+00 -5.000000000000000e+00
-1.000000000000000e+00 -1.000000000000000e+00 -3.000000000000000e+00
-3.000000000000000e+00 -1.000000000000000e+00 -1.000000000000000e+00
-3.000000000000000e+00 -1.000000000000000e+00 -3.000000000000000e+00
-3.000000000000000e+00 1.000000000000000e+00 -3.000000000000000e+00
-3.000000000000000e+00 1.000000000000000e+00 -1.000000000000000e+00
-1.000000000000000e+00 -1.000000000000000e+00 -1.000000000000000e+00
-1.000000000000000e+00 -1.000000000000000e+00 -3.000000000000000e+00
-1.000000000000000e+00 1.000000000000000e+00 -3.000000000000000e+00
-1.000000000000000e+00 1.000000000000000e+00 -1.000000000000000e+00
-3.000000000000000e+00 -1.000000000000000e+00 -3.000000000000000e+00
-3.000000000000000e+00 -1.000000000000000e+00 -5.000000000000000e+00
-3.000000000000000e+00 1.000000000000000e+00 -5.000000000000000e+00
-3.000000000000000e+00 1.000000000000000e+00 -3.000000000000000e+00
-1.000000000000000e+00 -1.000000000000000e+00 -3.000000000000000e+00
-1.000000000000000e+00 -1.000000000000000e+00 -5.000000000000000e+00
-1.000000000000000e+00 1.000000000000000e+00 -5.000000000000000e+00
-1.000000000000000e+00 1.000000000000000e+00 -3.000000000000000e+00
-3.000000000000000e+00 1.000000000000000e+00 -1.000000000000000e+00
-3.000000000000000e+00 1.000000000000000e+00 -3.000000000000000e+00
-3.000000000000000e+00 3.000000000000000e+00 -3.000000000000000e+00
-3.000000000000000e+00 3.000000000000000e+00 -9.999999999999999e-01
-1.000000000000000e+00 1.000000000000000e+00 -1.000000000000000e+00
-1.000000000000000e+00 1.000000000000000e+00 -3.000000000000000e+00
-1.000000000000000e+00 3.000000000000000e+00 -3.000000000000000e+00
-1.000000000000000e+00 3.000000000000000e+00 -1.000000000000000e+00
-3.000000000000000e+00 1.000000000000000e+00 -3.000000000000000e+00
-3.000000000000000e+00 1.000000000000000e+00 -5.000000000000000e+00
[...]
  <PointData>
        <DataArray type="Float64" Name="displacement" NumberOfComponents="3" format="ascii">
0.000000000000000e+00 0.000000000000000e+00 0.000000000000000e+00
0.000000000000000e+00 0.000000000000000e+00 0.000000000000000e+00
0.000000000000000e+00 0.000000000000000e+00 0.000000000000000e+00
0.000000000000000e+00 0.000000000000000e+00 0.000000000000000e+00
-4.538264040063111e-04 0.000000000000000e+00 0.000000000000000e+00
-4.538264040062562e-04 0.000000000000000e+00 0.000000000000000e+00
-4.538264040064622e-04 -7.882453783451165e-17 -1.301084444638284e-16
-4.538264040062028e-04 1.823932529588109e-16 -6.745627683353668e-17
0.000000000000000e+00 0.000000000000000e+00 0.000000000000000e+00
0.000000000000000e+00 0.000000000000000e+00 0.000000000000000e+00
0.000000000000000e+00 0.000000000000000e+00 0.000000000000000e+00
0.000000000000000e+00 0.000000000000000e+00 0.000000000000000e+00
-4.538264040062562e-04 0.000000000000000e+00 0.000000000000000e+00
-4.538264040071825e-04 0.000000000000000e+00 0.000000000000000e+00
-4.538264040060928e-04 0.000000000000000e+00 0.000000000000000e+00
-4.538264040064622e-04 -7.882453783451165e-17 -1.301084444638284e-16
0.000000000000000e+00 0.000000000000000e+00 0.000000000000000e+00
0.000000000000000e+00 0.000000000000000e+00 0.000000000000000e+00
0.000000000000000e+00 0.000000000000000e+00 0.000000000000000e+00
0.000000000000000e+00 0.000000000000000e+00 0.000000000000000e+00
-4.538264040062028e-04 1.823932529588109e-16 -6.745627683353668e-17
-4.538264040064622e-04 -7.882453783451165e-17 -1.301084444638284e-16
-4.538264040061489e-04 2.774129347643623e-16 2.923012309764365e-16
-4.538264040060482e-04 1.894379161536975e-16 1.368739941782975e-17
0.000000000000000e+00 0.000000000000000e+00 0.000000000000000e+00
0.000000000000000e+00 0.000000000000000e+00 0.000000000000000e+00
0.000000000000000e+00 0.000000000000000e+00 0.000000000000000e+00
0.000000000000000e+00 0.000000000000000e+00 0.000000000000000e+00
-4.538264040064622e-04 -7.882453783451165e-17 -1.301084444638284e-16
-4.538264040060928e-04 0.000000000000000e+00 0.000000000000000e+00
-4.538264040069846e-04 0.000000000000000e+00 0.000000000000000e+00
-4.538264040061489e-04 2.774129347643623e-16 2.923012309764365e-16
0.000000000000000e+00 0.000000000000000e+00 0.000000000000000e+00
0.000000000000000e+00 0.000000000000000e+00 0.000000000000000e+00
0.000000000000000e+00 0.000000000000000e+00 0.000000000000000e+00
0.000000000000000e+00 0.000000000000000e+00 0.000000000000000e+00
-4.538264040060482e-04 1.894379161536975e-16 1.368739941782975e-17
-4.538264040061489e-04 2.774129347643623e-16 2.923012309764365e-16
-4.538264040068122e-04 1.841477118494650e-17 2.674234992701659e-16
-4.538264040060357e-04 4.390270872949656e-17 4.230361471732551e-16
0.000000000000000e+00 0.000000000000000e+00 0.000000000000000e+00
0.000000000000000e+00 0.000000000000000e+00 0.000000000000000e+00
0.000000000000000e+00 0.000000000000000e+00 0.000000000000000e+00
0.000000000000000e+00 0.000000000000000e+00 0.000000000000000e+00
-4.538264040061489e-04 2.774129347643623e-16 2.923012309764365e-16
-4.538264040069846e-04 0.000000000000000e+00 0.000000000000000e+00
-4.538264040061342e-04 0.000000000000000e+00 0.000000000000000e+00
-4.538264040068122e-04 1.841477118494650e-17 2.674234992701659e-16
0.000000000000000e+00 0.000000000000000e+00 0.000000000000000e+00
0.000000000000000e+00 0.000000000000000e+00 0.000000000000000e+00
0.000000000000000e+00 0.000000000000000e+00 0.000000000000000e+00
0.000000000000000e+00 0.000000000000000e+00 0.000000000000000e+00
-4.538264040060357e-04 4.390270872949656e-17 4.230361471732551e-16
-4.538264040068122e-04 1.841477118494650e-17 2.674234992701659e-16
-4.538264040050342e-04 6.873166941374619e-16 -8.061155633404415e-16
-4.538264040064198e-04 5.175150813686785e-16 -8.581640785169329e-16
0.000000000000000e+00 0.000000000000000e+00 0.000000000000000e+00
0.000000000000000e+00 0.000000000000000e+00 0.000000000000000e+00
0.000000000000000e+00 0.000000000000000e+00 0.000000000000000e+00
0.000000000000000e+00 0.000000000000000e+00 0.000000000000000e+00
-4.538264040068122e-04 1.841477118494650e-17 2.674234992701659e-16
-4.538264040061342e-04 0.000000000000000e+00 0.000000000000000e+00
-4.538264040061964e-04 0.000000000000000e+00 0.000000000000000e+00
-4.538264040050342e-04 6.873166941374619e-16 -8.061155633404415e-16
0.000000000000000e+00 0.000000000000000e+00 0.000000000000000e+00
0.000000000000000e+00 0.000000000000000e+00 0.000000000000000e+00
0.000000000000000e+00 0.000000000000000e+00 0.000000000000000e+00
0.000000000000000e+00 0.000000000000000e+00 0.000000000000000e+00
-4.538264040064198e-04 5.175150813686785e-16 -8.581640785169329e-16
-4.538264040050342e-04 6.873166941374619e-16 -8.061155633404415e-16
-4.538264040052003e-04 0.000000000000000e+00 0.000000000000000e+00
-4.538264040053545e-04 0.000000000000000e+00 0.000000000000000e+00
0.000000000000000e+00 0.000000000000000e+00 0.000000000000000e+00
0.000000000000000e+00 0.000000000000000e+00 0.000000000000000e+00
0.000000000000000e+00 0.000000000000000e+00 0.000000000000000e+00
0.000000000000000e+00 0.000000000000000e+00 0.000000000000000e+00
-4.538264040050342e-04 6.873166941374619e-16 -8.061155633404415e-16
-4.538264040061964e-04 0.000000000000000e+00 0.000000000000000e+00
-4.538264040065182e-04 0.000000000000000e+00 0.000000000000000e+00
-4.538264040052003e-04 0.000000000000000e+00 0.000000000000000e+00
-4.538264040063111e-04 0.000000000000000e+00 0.000000000000000e+00
-4.538264040062562e-04 0.000000000000000e+00 0.000000000000000e+00
-4.538264040064622e-04 -7.882453783451165e-17 -1.301084444638284e-16
-4.538264040062028e-04 1.823932529588109e-16 -6.745627683353668e-17
-9.070747024729855e-04 0.000000000000000e+00 0.000000000000000e+00
-9.070747024715823e-04 0.000000000000000e+00 0.000000000000000e+00
-9.070747024726928e-04 2.607502566414370e-17 6.219260920786326e-16
-9.070747024727610e-04 -5.122285212265228e-17 1.525577720731473e-16
-4.538264040062562e-04 0.000000000000000e+00 0.000000000000000e+00
-4.538264040071825e-04 0.000000000000000e+00 0.000000000000000e+00
-4.538264040060928e-04 0.000000000000000e+00 0.000000000000000e+00
-4.538264040064622e-04 -7.882453783451165e-17 -1.301084444638284e-16
-9.070747024715823e-04 0.000000000000000e+00 0.000000000000000e+00
-9.070747024722018e-04 0.000000000000000e+00 0.000000000000000e+00
-9.070747024724617e-04 0.000000000000000e+00 0.000000000000000e+00
-9.070747024726928e-04 2.607502566414370e-17 6.219260920786326e-16
-4.538264040062028e-04 1.823932529588109e-16 -6.745627683353668e-17
-4.538264040064622e-04 -7.882453783451165e-17 -1.301084444638284e-16
-4.538264040061489e-04 2.774129347643623e-16 2.923012309764365e-16
-4.538264040060482e-04 1.894379161536975e-16 1.368739941782975e-17
-9.070747024727610e-04 -5.122285212265228e-17 1.525577720731473e-16
-9.070747024726928e-04 2.607502566414370e-17 6.219260920786326e-16
-9.070747024725910e-04 1.170984655653154e-15 -3.803320816256636e-16
-9.070747024717430e-04 8.677548232725138e-16 8.488301227283881e-16
-4.538264040064622e-04 -7.882453783451165e-17 -1.301084444638284e-16
-4.538264040060928e-04 0.000000000000000e+00 0.000000000000000e+00
-4.538264040069846e-04 0.000000000000000e+00 0.000000000000000e+00
-4.538264040061489e-04 2.774129347643623e-16 2.923012309764365e-16
-9.070747024726928e-04 2.607502566414370e-17 6.219260920786326e-16
-9.070747024724617e-04 0.000000000000000e+00 0.000000000000000e+00
-9.070747024721736e-04 0.000000000000000e+00 0.000000000000000e+00
-9.070747024725910e-04 1.170984655653154e-15 -3.803320816256636e-16
-4.538264040060482e-04 1.894379161536975e-16 1.368739941782975e-17
-4.538264040061489e-04 2.774129347643623e-16 2.923012309764365e-16
-4.538264040068122e-04 1.841477118494650e-17 2.674234992701659e-16
-4.538264040060357e-04 4.390270872949656e-17 4.230361471732551e-16
-9.070747024717430e-04 8.677548232725138e-16 8.488301227283881e-16
-9.070747024725910e-04 1.170984655653154e-15 -3.803320816256636e-16
-9.070747024722076e-04 3.206555801496990e-16 -2.341365097904146e-16
-9.070747024724965e-04 2.103426443755520e-16 1.594631120217480e-16
-4.538264040061489e-04 2.774129347643623e-16 2.923012309764365e-16
-4.538264040069846e-04 0.000000000000000e+00 0.000000000000000e+00
-4.538264040061342e-04 0.000000000000000e+00 0.000000000000000e+00
-4.538264040068122e-04 1.841477118494650e-17 2.674234992701659e-16
-9.070747024725910e-04 1.170984655653154e-15 -3.803320816256636e-16
-9.070747024721736e-04 0.000000000000000e+00 0.000000000000000e+00
-9.070747024726215e-04 0.000000000000000e+00 0.000000000000000e+00
-9.070747024722076e-04 3.206555801496990e-16 -2.341365097904146e-16
-4.538264040060357e-04 4.390270872949656e-17 4.230361471732551e-16
-4.538264040068122e-04 1.841477118494650e-17 2.674234992701659e-16
-4.538264040050342e-04 6.873166941374619e-16 -8.061155633404415e-16
-4.538264040064198e-04 5.175150813686785e-16 -8.581640785169329e-16
-9.070747024724965e-04 2.103426443755520e-16 1.594631120217480e-16
-9.070747024722076e-04 3.206555801496990e-16 -2.341365097904146e-16
-9.070747024726549e-04 -2.559327905164775e-16 1.033676178764293e-16
-9.070747024726748e-04 1.525233715870849e-16 -4.628327717678566e-16
-4.538264040068122e-04 1.841477118494650e-17 2.674234992701659e-16
-4.538264040061342e-04 0.000000000000000e+00 0.000000000000000e+00
-4.538264040061964e-04 0.000000000000000e+00 0.000000000000000e+00
-4.538264040050342e-04 6.873166941374619e-16 -8.061155633404415e-16
-9.070747024722076e-04 3.206555801496990e-16 -2.341365097904146e-16
-9.070747024726215e-04 0.000000000000000e+00 0.000000000000000e+00
-9.070747024725275e-04 0.000000000000000e+00 0.000000000000000e+00
-9.070747024726549e-04 -2.559327905164775e-16 1.033676178764293e-16
-4.538264040064198e-04 5.175150813686785e-16 -8.581640785169329e-16
-4.538264040050342e-04 6.873166941374619e-16 -8.061155633404415e-16
-4.538264040052003e-04 0.000000000000000e+00 0.000000000000000e+00
-4.538264040053545e-04 0.000000000000000e+00 0.000000000000000e+00
-9.070747024726748e-04 1.525233715870849e-16 -4.628327717678566e-16
-9.070747024726549e-04 -2.559327905164775e-16 1.033676178764293e-16
-9.070747024713128e-04 0.000000000000000e+00 0.000000000000000e+00
-9.070747024720198e-04 0.000000000000000e+00 0.000000000000000e+00
-4.538264040050342e-04 6.873166941374619e-16 -8.061155633404415e-16
-4.538264040061964e-04 0.000000000000000e+00 0.000000000000000e+00
-4.538264040065182e-04 0.000000000000000e+00 0.000000000000000e+00
-4.538264040052003e-04 0.000000000000000e+00 0.000000000000000e+00
-9.070747024726549e-04 -2.559327905164775e-16 1.033676178764293e-16
-9.070747024725275e-04 0.000000000000000e+00 0.000000000000000e+00
-9.070747024713961e-04 0.000000000000000e+00 0.000000000000000e+00
-9.070747024713128e-04 0.000000000000000e+00 0.000000000000000e+00
-9.070747024729855e-04 0.000000000000000e+00 0.000000000000000e+00
-9.070747024715823e-04 0.000000000000000e+00 0.000000000000000e+00
-9.070747024726928e-04 2.607502566414370e-17 6.219260920786326e-16
-9.070747024727610e-04 -5.122285212265228e-17 1.525577720731473e-16
-1.360466801260901e-03 0.000000000000000e+00 0.000000000000000e+00
-1.360466801261197e-03 0.000000000000000e+00 0.000000000000000e+00
-1.360466801261253e-03 -2.769518484717703e-16 -3.142625468073377e-16
-1.360466801260829e-03 7.118117803271960e-16 2.094068962193142e-16
-9.070747024715823e-04 0.000000000000000e+00 0.000000000000000e+00
-9.070747024722018e-04 0.000000000000000e+00 0.000000000000000e+00
-9.070747024724617e-04 0.000000000000000e+00 0.000000000000000e+00
-9.070747024726928e-04 2.607502566414370e-17 6.219260920786326e-16
-1.360466801261197e-03 0.000000000000000e+00 0.000000000000000e+00
-1.360466801261060e-03 0.000000000000000e+00 0.000000000000000e+00
-1.360466801260764e-03 0.000000000000000e+00 0.000000000000000e+00
-1.360466801261253e-03 -2.769518484717703e-16 -3.142625468073377e-16
-9.070747024727610e-04 -5.122285212265228e-17 1.525577720731473e-16
-9.070747024726928e-04 2.607502566414370e-17 6.219260920786326e-16
-9.070747024725910e-04 1.170984655653154e-15 -3.803320816256636e-16
-9.070747024717430e-04 8.677548232725138e-16 8.488301227283881e-16
-1.360466801260829e-03 7.118117803271960e-16 2.094068962193142e-16
-1.360466801261253e-03 -2.769518484717703e-16 -3.142625468073377e-16
-1.360466801261164e-03 4.929872810177007e-16 3.493311037219302e-16
-1.360466801260584e-03 7.934016365456994e-16 -1.601358238054714e-17
-9.070747024726928e-04 2.607502566414370e-17 6.219260920786326e-16
-9.070747024724617e-04 0.000000000000000e+00 0.000000000000000e+00
-9.070747024721736e-04 0.000000000000000e+00 0.000000000000000e+00
-9.070747024725910e-04 1.170984655653154e-15 -3.803320816256636e-16
-1.360466801261253e-03 -2.769518484717703e-16 -3.142625468073377e-16
-1.360466801260764e-03 0.000000000000000e+00 0.000000000000000e+00
-1.360466801260160e-03 0.000000000000000e+00 0.000000000000000e+00
-1.360466801261164e-03 4.929872810177007e-16 3.493311037219302e-16
-9.070747024717430e-04 8.677548232725138e-16 8.488301227283881e-16
-9.070747024725910e-04 1.170984655653154e-15 -3.803320816256636e-16
-9.070747024722076e-04 3.206555801496990e-16 -2.341365097904146e-16
-9.070747024724965e-04 2.103426443755520e-16 1.594631120217480e-16
-1.360466801260584e-03 7.934016365456994e-16 -1.601358238054714e-17
-1.360466801261164e-03 4.929872810177007e-16 3.493311037219302e-16
-1.360466801260453e-03 6.182968411679224e-16 -3.305323988768269e-16
-1.360466801260627e-03 2.741931737658875e-16 -3.338805058761979e-16
-9.070747024725910e-04 1.170984655653154e-15 -3.803320816256636e-16
-9.070747024721736e-04 0.000000000000000e+00 0.000000000000000e+00
-9.070747024726215e-04 0.000000000000000e+00 0.000000000000000e+00
-9.070747024722076e-04 3.206555801496990e-16 -2.341365097904146e-16
-1.360466801261164e-03 4.929872810177007e-16 3.493311037219302e-16
-1.360466801260160e-03 0.000000000000000e+00 0.000000000000000e+00
-1.360466801260516e-03 0.000000000000000e+00 0.000000000000000e+00
-1.360466801260453e-03 6.182968411679224e-16 -3.305323988768269e-16
-9.070747024724965e-04 2.103426443755520e-16 1.594631120217480e-16
-9.070747024722076e-04 3.206555801496990e-16 -2.341365097904146e-16
-9.070747024726549e-04 -2.559327905164775e-16 1.033676178764293e-16
-9.070747024726748e-04 1.525233715870849e-16 -4.628327717678566e-16
-1.360466801260627e-03 2.741931737658875e-16 -3.338805058761979e-16
-1.360466801260453e-03 6.182968411679224e-16 -3.305323988768269e-16
-1.360466801260970e-03 4.859196411279555e-16 3.745689293637322e-16
-1.360466801261260e-03 9.388907328534361e-16 3.541765224128366e-17
-9.070747024722076e-04 3.206555801496990e-16 -2.341365097904146e-16
-9.070747024726215e-04 0.000000000000000e+00 0.000000000000000e+00
-9.070747024725275e-04 0.000000000000000e+00 0.000000000000000e+00
-9.070747024726549e-04 -2.559327905164775e-16 1.033676178764293e-16
-1.360466801260453e-03 6.182968411679224e-16 -3.305323988768269e-16
-1.360466801260516e-03 0.000000000000000e+00 0.000000000000000e+00
-1.360466801260334e-03 0.000000000000000e+00 0.000000000000000e+00
-1.360466801260970e-03 4.859196411279555e-16 3.745689293637322e-16
-9.070747024726748e-04 1.525233715870849e-16 -4.628327717678566e-16
-9.070747024726549e-04 -2.559327905164775e-16 1.033676178764293e-16
-9.070747024713128e-04 0.000000000000000e+00 0.000000000000000e+00
-9.070747024720198e-04 0.000000000000000e+00 0.000000000000000e+00
-1.360466801261260e-03 9.388907328534361e-16 3.541765224128366e-17
-1.360466801260970e-03 4.859196411279555e-16 3.745689293637322e-16
-1.360466801260348e-03 0.000000000000000e+00 0.000000000000000e+00
-1.360466801260123e-03 0.000000000000000e+00 0.000000000000000e+00
-9.070747024726549e-04 -2.559327905164775e-16 1.033676178764293e-16
-9.070747024725275e-04 0.000000000000000e+00 0.000000000000000e+00
-9.070747024713961e-04 0.000000000000000e+00 0.000000000000000e+00
-9.070747024713128e-04 0.000000000000000e+00 0.000000000000000e+00
-1.360466801260970e-03 4.859196411279555e-16 3.745689293637322e-16
-1.360466801260334e-03 0.000000000000000e+00 0.000000000000000e+00
-1.360466801259280e-03 0.000000000000000e+00 0.000000000000000e+00
-1.360466801260348e-03 0.000000000000000e+00 0.000000000000000e+00
-1.360466801260901e-03 0.000000000000000e+00 0.000000000000000e+00
-1.360466801261197e-03 0.000000000000000e+00 0.000000000000000e+00
-1.360466801261253e-03 -2.769518484717703e-16 -3.142625468073377e-16
-1.360466801260829e-03 7.118117803271960e-16 2.094068962193142e-16
-1.814801405133484e-03 0.000000000000000e+00 0.000000000000000e+00
-1.814801405132633e-03 0.000000000000000e+00 0.000000000000000e+00
-1.814801405133177e-03 -7.187827097746401e-16 6.288003529860725e-16
-1.814801405132657e-03 -4.414575878696909e-16 4.940948551467608e-16
-1.360466801261197e-03 0.000000000000000e+00 0.000000000000000e+00
-1.360466801261060e-03 0.000000000000000e+00 0.000000000000000e+00
-1.360466801260764e-03 0.000000000000000e+00 0.000000000000000e+00
-1.360466801261253e-03 -2.769518484717703e-16 -3.142625468073377e-16
-1.814801405132633e-03 0.000000000000000e+00 0.000000000000000e+00
-1.814801405133418e-03 0.000000000000000e+00 0.000000000000000e+00
-1.814801405133365e-03 0.000000000000000e+00 0.000000000000000e+00
-1.814801405133177e-03 -7.187827097746401e-16 6.288003529860725e-16
-1.360466801260829e-03 7.118117803271960e-16 2.094068962193142e-16
-1.360466801261253e-03 -2.769518484717703e-16 -3.142625468073377e-16
-1.360466801261164e-03 4.929872810177007e-16 3.493311037219302e-16
-1.360466801260584e-03 7.934016365456994e-16 -1.601358238054714e-17
-1.814801405132657e-03 -4.414575878696909e-16 4.940948551467608e-16
-1.814801405133177e-03 -7.187827097746401e-16 6.288003529860725e-16
-1.814801405132959e-03 5.612176118123626e-16 -3.442918030004963e-16
-1.814801405133478e-03 1.370775223061082e-15 -4.362447599894634e-17
-1.360466801261253e-03 -2.769518484717703e-16 -3.142625468073377e-16
-1.360466801260764e-03 0.000000000000000e+00 0.000000000000000e+00
-1.360466801260160e-03 0.000000000000000e+00 0.000000000000000e+00
-1.360466801261164e-03 4.929872810177007e-16 3.493311037219302e-16
-1.814801405133177e-03 -7.187827097746401e-16 6.288003529860725e-16
-1.814801405133365e-03 0.000000000000000e+00 0.000000000000000e+00
-1.814801405133376e-03 0.000000000000000e+00 0.000000000000000e+00
-1.814801405132959e-03 5.612176118123626e-16 -3.442918030004963e-16
-1.360466801260584e-03 7.934016365456994e-16 -1.601358238054714e-17
-1.360466801261164e-03 4.929872810177007e-16 3.493311037219302e-16
-1.360466801260453e-03 6.182968411679224e-16 -3.305323988768269e-16
-1.360466801260627e-03 2.741931737658875e-16 -3.338805058761979e-16
-1.814801405133478e-03 1.370775223061082e-15 -4.362447599894634e-17
-1.814801405132959e-03 5.612176118123626e-16 -3.442918030004963e-16
-1.814801405133007e-03 4.385435439070256e-16 -2.956034028335630e-16
-1.814801405132341e-03 2.841406894615928e-16 1.098620738598776e-16
-1.360466801261164e-03 4.929872810177007e-16 3.493311037219302e-16
-1.360466801260160e-03 0.000000000000000e+00 0.000000000000000e+00
-1.360466801260516e-03 0.000000000000000e+00 0.000000000000000e+00
-1.360466801260453e-03 6.182968411679224e-16 -3.305323988768269e-16
-1.814801405132959e-03 5.612176118123626e-16 -3.442918030004963e-16
-1.814801405133376e-03 0.000000000000000e+00 0.000000000000000e+00
-1.814801405131817e-03 0.000000000000000e+00 0.000000000000000e+00
-1.814801405133007e-03 4.385435439070256e-16 -2.956034028335630e-16
-1.360466801260627e-03 2.741931737658875e-16 -3.338805058761979e-16
-1.360466801260453e-03 6.182968411679224e-16 -3.305323988768269e-16
-1.360466801260970e-03 4.859196411279555e-16 3.745689293637322e-16
-1.360466801261260e-03 9.388907328534361e-16 3.541765224128366e-17
-1.814801405132341e-03 2.841406894615928e-16 1.098620738598776e-16
-1.814801405133007e-03 4.385435439070256e-16 -2.956034028335630e-16
-1.814801405132510e-03 -5.330524644433924e-16 -4.603715652917586e-16