<?xml version="1.0" ?> 
<!-- 
# vtk DataFile Version 3.0
-->
<VTKFile type="UnstructuredGrid" version="0.1" compressor="vtkZLibDataCompressor" byte_order="LittleEndian">
  <UnstructuredGrid>
    <FieldData>
      <DataArray type="Float64" Name="TIME" NumberOfTuples="1" format="ascii">
9.999999999999999e-02 
      </DataArray>
    </FieldData>

    <Piece NumberOfPoints="400" NumberOfCells="50" >
      <Points>
        <DataArray type="Float64" NumberOfComponents="3" format="ascii">
-5.000000000000000e+00 -5.000000000000000e+00 -1.000000000000000e+00
-5.000000000000000e+00 -5.000000000000000e+00 -3.000000000000000e+00
-5.000000000000000e+00 -3.000000000000000e+00 -3.000000000000000e+00
-5.000000000000000e+00 -3.000000000000000e+00 -1.000000000000000e+00
-3.000000000000000e+00 -5.000000000000000e+00 -1.000000000000000e+00
-3.000000000000000e+00 -5.000000000000000e+00 -3.000000000000000e+00
-3.000000000000000e+00 -3.000000000000000e+00 -3.000000000000000e+00
-3.000000000000000e+00 -3.000000000000000e+00 -1.000000000000000e+00
-5.000000000000000e+00 -5.000000000000000e+00 -3.000000000000000e+00
-5.000000000000000e+00 -5.000000000000000e+00 -5.000000000000000e+00
-5.000000000000000e+00 -3.000000000000000e+00 -5.000000000000000e+00
-5.000000000000000e+00 -3.000000000000000e+00 -3.000000000000000e+00
-3.000000000000000e+00 -5.000000000000000e+00 -3.000000000000000e+00
-3.000000000000000e+00 -5.000000000000000e+00 -5.000000000000000e+00
-3.000000000000000e+00 -3.000000000000000e+00 -5.000000000000000e+00
-3.000000000000000e+00 -3.000000000000000e+00 -3.000000000000000e+00
-5.000000000000000e+00 -3.000000000000000e+00 -1.000000000000000e+00
-5.000000000000000e+00 -3.000000000000000e+00 -3.000000000000000e+00
-5.000000000000000e+00 -1.000000000000000e+00 -3.000000000000000e+00
-5.000000000000000e+00 -1.000000000000000e+00 -1.000000000000000e+00
-3.000000000000000e+00 -3.000000000000000e+00 -1.000000000000000e+00
-3.000000000000000e+00 -3.000000000000000e+00 -3.000000000000000e+00
-3.000000000000000e+00 -1.000000000000000e+00 -3.000000000000000e+00
-3.000000000000000e+00 -1.000000000000000e+00 -1.000000000000000e+00
-5.000000000000000e+00 -3.000000000000000e+00 -3.000000000000000e+00
-5.000000000000000e+00 -3.000000000000000e+00 -5.000000000000000e+00
-5.000000000000000e+00 -1.000000000000000e+00 -5.000000000000000e+00
-5.000000000000000e+00 -1.000000000000000e+00 -3.000000000000000e+00
-3.000000000000000e+00 -3.000000000000000e+00 -3.000000000000000e+00
-3.000000000000000e+00 -3.000000000000000e+00 -5.000000000000000e+00
-3.000000000000000e+00 -1.000000000000000e+00 -5.000000000000000e+00
-3.000000000000000e+00 -1.000000000000000e+00 -3.000000000000000e+00
-5.000000000000000e+00 -1.000000000000000e+00 -1.000000000000000e+00
-5.000000000000000e+00 -1.000000000000000e+00 -3.000000000000000e+00
-5.000000000000000e+00 1.000000000000000e+00 -3.000000000000000e+00
-5.000000000000000e+00 1.000000000000000e+00 -1.000000000000000e+00
-3.000000000000000e+00 -1.000000000000000e+00 -1.000000000000000e+00
-3.000000000000000e+00 -1.000000000000000e+00 -3.000000000000000e+00
-3.000000000000000e+00 1.000000000000000e+00 -3.000000000000000e+00
-3.000000000000000e+00 1.000000000000000e+00 -1.000000000000000e+00
-5.000000000000000e+00 -1.000000000000000e+00 -3.000000000000000e+00
-5.000000000000000e+00 -1.000000000000000e+00 -5.000000000000000e+00
-5.000000000000000e+00 1.000000000000000e+00 -5.000000000000000e+00
-5.000000000000000e+00 1.000000000000000e+00 -3.000000000000000e+00
-3.000000000000000e+00 -1.000000000000000e+00 -3.000000000000000e+00
-3.000000000000000e+00 -1.000000000000000e+00 -5.000000000000000e+00
-3.000000000000000e+00 1.000000000000000e+00 -5.000000000000000e+00
-3.000000000000000e+00 1.000000000000000e+00 -3.000000000000000e+00
-5.000000000000000e+00 1.000000000000000e+00 -1.000000000000000e+00
-5.000000000000000e+00 1.000000000000000e+00 -3.000000000000000e+00
-5.000000000000000e+00 3.000000000000000e+00 -3.000000000000000e+00
-5.000000000000000e+00 3.000000000000000e+00 -1.000000000000000e+00
-3.000000000000000e+00 1.000000000000000e+00 -1.000000000000000e+00
-3.000000000000000e+00 1.000000000000000e+00 -3.000000000000000e+00
-3.000000000000000e+00 3.000000000000000e+00 -3.000000000000000e+00
-3.000000000000000e+00 3.000000000000000e+00 -9.999999999999999e-01
-5.000000000000000e+00 1.000000000000000e+00 -3.000000000000000e+00
-5.000000000000000e+00 1.000000000000000e+00 -5.000000000000000e+00
-5.000000000000000e+00 3.000000000000000e+00 -5.000000000000000e+00
-5.000000000000000e+00 3.000000000000000e+00 -3.000000000000000e+00
-3.000000000000000e+00 1.000000000000000e+00 -3.000000000000000e+00
-3.000000000000000e+00 1.000000000000000e+00 -5.000000000000000e+00
-3.000000000000000e+00 3.000000000000000e+00 -4.999999999999999e+00
-3.000000000000000e+00 3.000000000000000e+00 -3.000000000000000e+00
-5.000000000000000e+00 3.000000000000000e+00 -1.000000000000000e+00
-5.000000000000000e+00 3.000000000000000e+00 -3.000000000000000e+00
-5.000000000000000e+00 5.000000000000000e+00 -3.000000000000000e+00
-5.000000000000000e+00 5.000000000000000e+00 -1.000000000000000e+00
-3.000000000000000e+00 3.000000000000000e+00 -9.999999999999999e-01
-3.000000000000000e+00 3.000000000000000e+00 -3.000000000000000e+00
-3.000000000000000e+00 5.000000000000000e+00 -3.000000000000000e+00
-3.000000000000000e+00 5.000000000000000e+00 -1.000000000000000e+00
-5.000000000000000e+00 3.000000000000000e+00 -3.000000000000000e+00
-5.000000000000000e+00 3.000000000000000e+00 -5.000000000000000e+00
-5.000000000000000e+00 5.000000000000000e+00 -5.000000000000000e+00
-5.000000000000000e+00 5.000000000000000e+00 -3.000000000000000e+00
-3.000000000000000e+00 3.000000000000000e+00 -3.000000000000000e+00
-3.000000000000000e+00 3.000000000000000e+00 -4.999999999999999e+00
-3.000000000000000e+00 5.000000000000000e+00 -5.000000000000000e+00
-3.000000000000000e+00 5.000000000000000e+00 -3.000000000000000e+00
-3.000000000000000e+00 -5.000000000000000e+00 -1.000000000000000e+00
-3.000000000000000e+00 -5.000000000000000e+00 -3.000000000000000e+00
-3.000000000000000e+00 -3.000000000000000e+00 -3.000000000000000e+00
-3.000000000000000e+00 -3.000000000000000e+00 -1.000000000000000e+00
-1.000000000000000e+00 -5.000000000000000e+00 -1.000000000000000e+00
-1.000000000000000e+00 -5.000000000000000e+00 -3.000000000000000e+00
-1.000000000000000e+00 -3.000000000000000e+00 -3.000000000000000e+00
-1.000000000000000e+00 -3.000000000000000e+00 -1.000000000000000e+00
-3.000000000000000e+00 -5.000000000000000e+00 -3.000000000000000e+00
-3.000000000000000e+00 -5.000000000000000e+00 -5.000000000000000e+00
-3.000000000000000e+00 -3.000000000000000e+00 -5.000000000000000e+00
-3.000000000000000e+00 -3.000000000000000e+00 -3.000000000000000e+00
-1.000000000000000e+00 -5.000000000000000e+00 -3.000000000000000e+00
-1.000000000000000e+00 -5.000000000000000e+00 -5.000000000000000e+00
-1.000000000000000e+00 -3.000000000000000e+00 -5.000000000000000e+00
-1.000000000000000e+00 -3.000000000000000e+00 -3.000000000000000e+00
-3.000000000000000e+00 -3.000000000000000e+00 -1.000000000000000e+00
-3.000000000000000e+00 -3.000000000000000e+00 -3.000000000000000e+00
-3.000000000000000e+00 -1.000000000000000e+00 -3.000000000000000e+00
-3.000000000000000e+00 -1.000000000000000e+00 -1.000000000000000e+00
-1.000000000000000e+00 -3.000000000000000e+00 -1.000000000000000e+00
-1.000000000000000e+00 -3.000000000000000e+00 -3.000000000000000e+00
-1.000000000000000e+00 -1.000000000000000e+00 -3.000000000000000e+00
-1.000000000000000e+00 -1.000000000000000e+00 -1.000000000000000e+00
-3.000000000000000e+00 -3.000000000000000e+00 -3.000000000000000e+00
-3.000000000000000e+00 -3.000000000000000e+00 -5.000000000000000e+00
-3.000000000000000e+00 -1.000000000000000e+00 -5.000000000000000e+00
-3.000000000000000e+00 -1.000000000000000e+00 -3.000000000000000e+00
-1.000000000000000e+00 -3.000000000000000e+00 -3.000000000000000e+00
-1.000000000000000e+00 -3.000000000000000e+00 -5.000000000000000e+00
-1.000000000000000e+00 -1.000000000000000e+00 -5.000000000000000e+00
-1.000000000000000e+00 -1.000000000000000e+00 -3.000000000000000e+00
-3.000000000000000e+00 -1.000000000000000e+00 -1.000000000000000e+00
-3.000000000000000e+00 -1.000000000000000e+00 -3.000000000000000e+00
-3.000000000000000e+00 1.000000000000000e+00 -3.000000000000000e+00
-3.000000000000000e+00 1.000000000000000e+00 -1.000000000000000e+00
-1.000000000000000e+00 -1.000000000000000e+00 -1.000000000000000e+00
-1.000000000000000e+00 -1.000000000000000e+00 -3.000000000000000e+00
-1.000000000000000e+00 1.000000000000000e+00 -3.000000000000000e+00
-1.000000000000000e+00 1.000000000000000e+00 -1.000000000000000e+00
-3.000000000000000e+00 -1.000000000000000e+00 -3.000000000000000e+00
-3.000000000000000e+00 -1.000000000000000e+00 -5.000000000000000e+00
-3.000000000000000e+00 1.000000000000000e+00 -5.000000000000000e+00
-3.000000000000000e+00 1.000000000000000e+00 -3.000000000000000e+00
-1.000000000000000e+00 -1.000000000000000e+00 -3.000000000000000e+00
-1.000000000000000e+00 -1.000000000000000e+00 -5.000000000000000e+00
-1.000000000000000e+00 1.000000000000000e+00 -5.000000000000000e+00
-1.000000000000000e+00 1.000000000000000e+00 -3.000000000000000e+00
-3.000000000000000e+00 1.000000000000000e+00 -1.000000000000000e+00
-3.000000000000000e+00 1.000000000000000e+00 -3.000000000000000e+00
-3.000000000000000e+00 3.000000000000000e+00 -3.000000000000000e+00
-3.000000000000000e+00 3.000000000000000e+00 -9.999999999999999e-01
-1.000000000000000e+00 1.000000000000000e+00 -1.000000000000000e+00
-1.000000000000000e+00 1.000000000000000e+00 -3.000000000000000e+00
-1.000000000000000e+00 3.000000000000000e+00 -3.000000000000000e+00
-1.000000000000000e+00 3.000000000000000e+00 -1.000000000000000e+00
-3.000000000000000e+00 1.000000000000000e+00 -3.000000000000000e+00
-3.000000000000000e+00 1.000000000000000e+00 -5.000000000000000e+00
[...]
  <PointData>
        <DataArray type="Float64" Name="displacement" NumberOfComponents="3" format="ascii">
0.000000000000000e+00 0.000000000000000e+00 0.000000000000000e+00
0.000000000000000e+00 0.000000000000000e+00 0.000000000000000e+00
0.000000000000000e+00 0.000000000000000e+00 0.000000000000000e+00
0.000000000000000e+00 0.000000000000000e+00 0.000000000000000e+00
-4.538264040063062e-04 0.000000000000000e+00 0.000000000000000e+00
-4.538264040062428e-04 0.000000000000000e+00 0.000000000000000e+00
-4.538264040064411e-04 -8.261985904778553e-17 -1.297123531345221e-16
-4.538264040062064e-04 1.767777750412395e-16 -8.048514369125884e-17
0.000000000000000e+00 0.000000000000000e+00 0.000000000000000e+00
0.000000000000000e+00 0.000000000000000e+00 0.000000000000000e+00
0.000000000000000e+00 0.000000000000000e+00 0.000000000000000e+00
0.000000000000000e+00 0.000000000000000e+00 0.000000000000000e+00
-4.538264040062428e-04 0.000000000000000e+00 0.000000000000000e+00
-4.538264040071649e-04 0.000000000000000e+00 0.000000000000000e+00
-4.538264040060765e-04 0.000000000000000e+00 0.000000000000000e+00
-4.538264040064411e-04 -8.261985904778553e-17 -1.297123531345221e-16
0.000000000000000e+00 0.000000000000000e+00 0.000000000000000e+00
0.000000000000000e+00 0.000000000000000e+00 0.000000000000000e+00
0.000000000000000e+00 0.000000000000000e+00 0.000000000000000e+00
0.000000000000000e+00 0.000000000000000e+00 0.000000000000000e+00
-4.538264040062064e-04 1.767777750412395e-16 -8.048514369125884e-17
-4.538264040064411e-04 -8.261985904778553e-17 -1.297123531345221e-16
-4.538264040061460e-04 2.716846823241744e-16 2.846999597403460e-16
-4.538264040060575e-04 1.859644499141998e-16 1.356886324893634e-17
0.000000000000000e+00 0.000000000000000e+00 0.000000000000000e+00
0.000000000000000e+00 0.000000000000000e+00 0.000000000000000e+00
0.000000000000000e+00 0.000000000000000e+00 0.000000000000000e+00
0.000000000000000e+00 0.000000000000000e+00 0.000000000000000e+00
-4.538264040064411e-04 -8.261985904778553e-17 -1.297123531345221e-16
-4.538264040060765e-04 0.000000000000000e+00 0.000000000000000e+00
-4.538264040069606e-04 0.000000000000000e+00 0.000000000000000e+00
-4.538264040061460e-04 2.716846823241744e-16 2.846999597403460e-16
0.000000000000000e+00 0.000000000000000e+00 0.000000000000000e+00
0.000000000000000e+00 0.000000000000000e+00 0.000000000000000e+00
0.000000000000000e+00 0.000000000000000e+00 0.000000000000000e+00
0.000000000000000e+00 0.000000000000000e+00 0.000000000000000e+00
-4.538264040060575e-04 1.859644499141998e-16 1.356886324893634e-17
-4.538264040061460e-04 2.716846823241744e-16 2.846999597403460e-16
-4.538264040068250e-04 1.073015402120085e-17 2.547763237901007e-16
-4.538264040060606e-04 2.823663517213395e-17 4.727924158812611e-16
0.000000000000000e+00 0.000000000000000e+00 0.000000000000000e+00
0.000000000000000e+00 0.000000000000000e+00 0.000000000000000e+00
0.000000000000000e+00 0.000000000000000e+00 0.000000000000000e+00
0.000000000000000e+00 0.000000000000000e+00 0.000000000000000e+00
-4.538264040061460e-04 2.716846823241744e-16 2.846999597403460e-16
-4.538264040069606e-04 0.000000000000000e+00 0.000000000000000e+00
-4.538264040061203e-04 0.000000000000000e+00 0.000000000000000e+00
-4.538264040068250e-04 1.073015402120085e-17 2.547763237901007e-16
0.000000000000000e+00 0.000000000000000e+00 0.000000000000000e+00
0.000000000000000e+00 0.000000000000000e+00 0.000000000000000e+00
0.000000000000000e+00 0.000000000000000e+00 0.000000000000000e+00
0.000000000000000e+00 0.000000000000000e+00 0.000000000000000e+00
-4.538264040060606e-04 2.823663517213395e-17 4.727924158812611e-16
-4.538264040068250e-04 1.073015402120085e-17 2.547763237901007e-16
-4.538264040050562e-04 7.125075424187490e-16 -8.559452856989508e-16
-4.538264040063923e-04 5.285482626847600e-16 -9.003733712997433e-16
0.000000000000000e+00 0.000000000000000e+00 0.000000000000000e+00
0.000000000000000e+00 0.000000000000000e+00 0.000000000000000e+00
0.000000000000000e+00 0.000000000000000e+00 0.000000000000000e+00
0.000000000000000e+00 0.000000000000000e+00 0.000000000000000e+00
-4.538264040068250e-04 1.073015402120085e-17 2.547763237901007e-16
-4.538264040061203e-04 0.000000000000000e+00 0.000000000000000e+00
-4.538264040061494e-04 0.000000000000000e+00 0.000000000000000e+00
-4.538264040050562e-04 7.125075424187490e-16 -8.559452856989508e-16
0.000000000000000e+00 0.000000000000000e+00 0.000000000000000e+00
0.000000000000000e+00 0.000000000000000e+00 0.000000000000000e+00
0.000000000000000e+00 0.000000000000000e+00 0.000000000000000e+00
0.000000000000000e+00 0.000000000000000e+00 0.000000000000000e+00
-4.538264040063923e-04 5.285482626847600e-16 -9.003733712997433e-16
-4.538264040050562e-04 7.125075424187490e-16 -8.559452856989508e-16
-4.538264040051573e-04 0.000000000000000e+00 0.000000000000000e+00
-4.538264040053909e-04 0.000000000000000e+00 0.000000000000000e+00
0.000000000000000e+00 0.000000000000000e+00 0.000000000000000e+00
0.000000000000000e+00 0.000000000000000e+00 0.000000000000000e+00
0.000000000000000e+00 0.000000000000000e+00 0.000000000000000e+00
0.000000000000000e+00 0.000000000000000e+00 0.000000000000000e+00
-4.538264040050562e-04 7.125075424187490e-16 -8.559452856989508e-16
-4.538264040061494e-04 0.000000000000000e+00 0.000000000000000e+00
-4.538264040065161e-04 0.000000000000000e+00 0.000000000000000e+00
-4.538264040051573e-04 0.000000000000000e+00 0.000000000000000e+00
-4.538264040063062e-04 0.000000000000000e+00 0.000000000000000e+00
-4.538264040062428e-04 0.000000000000000e+00 0.000000000000000e+00
-4.538264040064411e-04 -8.261985904778553e-17 -1.297123531345221e-16
-4.538264040062064e-04 1.767777750412395e-16 -8.048514369125884e-17
-9.070747024730009e-04 0.000000000000000e+00 0.000000000000000e+00
-9.070747024715456e-04 0.000000000000000e+00 0.000000000000000e+00
-9.070747024727037e-04 3.547629126136538e-17 5.888246711729171e-16
-9.070747024727678e-04 -1.597613578256863e-17 4.102192730425869e-16
-4.538264040062428e-04 0.000000000000000e+00 0.000000000000000e+00
-4.538264040071649e-04 0.000000000000000e+00 0.000000000000000e+00
-4.538264040060765e-04 0.000000000000000e+00 0.000000000000000e+00
-4.538264040064411e-04 -8.261985904778553e-17 -1.297123531345221e-16
-9.070747024715456e-04 0.000000000000000e+00 0.000000000000000e+00
-9.070747024721908e-04 0.000000000000000e+00 0.000000000000000e+00
-9.070747024723493e-04 0.000000000000000e+00 0.000000000000000e+00
-9.070747024727037e-04 3.547629126136538e-17 5.888246711729171e-16
-4.538264040062064e-04 1.767777750412395e-16 -8.048514369125884e-17
-4.538264040064411e-04 -8.261985904778553e-17 -1.297123531345221e-16
-4.538264040061460e-04 2.716846823241744e-16 2.846999597403460e-16
-4.538264040060575e-04 1.859644499141998e-16 1.356886324893634e-17
-9.070747024727678e-04 -1.597613578256863e-17 4.102192730425869e-16
-9.070747024727037e-04 3.547629126136538e-17 5.888246711729171e-16
-9.070747024725823e-04 1.156087661239461e-15 -3.386592777201866e-16
-9.070747024718018e-04 8.357133642956256e-16 9.012523665329920e-16
-4.538264040064411e-04 -8.261985904778553e-17 -1.297123531345221e-16
-4.538264040060765e-04 0.000000000000000e+00 0.000000000000000e+00
-4.538264040069606e-04 0.000000000000000e+00 0.000000000000000e+00
-4.538264040061460e-04 2.716846823241744e-16 2.846999597403460e-16
-9.070747024727037e-04 3.547629126136538e-17 5.888246711729171e-16
-9.070747024723493e-04 0.000000000000000e+00 0.000000000000000e+00
-9.070747024721022e-04 0.000000000000000e+00 0.000000000000000e+00
-9.070747024725823e-04 1.156087661239461e-15 -3.386592777201866e-16
-4.538264040060575e-04 1.859644499141998e-16 1.356886324893634e-17
-4.538264040061460e-04 2.716846823241744e-16 2.846999597403460e-16
-4.538264040068250e-04 1.073015402120085e-17 2.547763237901007e-16
-4.538264040060606e-04 2.823663517213395e-17 4.727924158812611e-16
-9.070747024718018e-04 8.357133642956256e-16 9.012523665329920e-16
-9.070747024725823e-04 1.156087661239461e-15 -3.386592777201866e-16
-9.070747024722436e-04 2.947311390967398e-16 -2.977060145480536e-16
-9.070747024725827e-04 2.133860967029513e-16 1.482201870391843e-16
-4.538264040061460e-04 2.716846823241744e-16 2.846999597403460e-16
-4.538264040069606e-04 0.000000000000000e+00 0.000000000000000e+00
-4.538264040061203e-04 0.000000000000000e+00 0.000000000000000e+00
-4.538264040068250e-04 1.073015402120085e-17 2.547763237901007e-16
-9.070747024725823e-04 1.156087661239461e-15 -3.386592777201866e-16
-9.070747024721022e-04 0.000000000000000e+00 0.000000000000000e+00
-9.070747024725775e-04 0.000000000000000e+00 0.000000000000000e+00
-9.070747024722436e-04 2.947311390967398e-16 -2.977060145480536e-16
-4.538264040060606e-04 2.823663517213395e-17 4.727924158812611e-16
-4.538264040068250e-04 1.073015402120085e-17 2.547763237901007e-16
-4.538264040050562e-04 7.125075424187490e-16 -8.559452856989508e-16
-4.538264040063923e-04 5.285482626847600e-16 -9.003733712997433e-16
-9.070747024725827e-04 2.133860967029513e-16 1.482201870391843e-16
-9.070747024722436e-04 2.947311390967398e-16 -2.977060145480536e-16
-9.070747024724585e-04 -1.524220243022558e-16 1.658801197297156e-16
-9.070747024725876e-04 1.648680044208991e-16 -1.994624339337378e-16
-4.538264040068250e-04 1.073015402120085e-17 2.547763237901007e-16
-4.538264040061203e-04 0.000000000000000e+00 0.000000000000000e+00
-4.538264040061494e-04 0.000000000000000e+00 0.000000000000000e+00
-4.538264040050562e-04 7.125075424187490e-16 -8.559452856989508e-16
-9.070747024722436e-04 2.947311390967398e-16 -2.977060145480536e-16
-9.070747024725775e-04 0.000000000000000e+00 0.000000000000000e+00
-9.070747024725444e-04 0.000000000000000e+00 0.000000000000000e+00
-9.070747024724585e-04 -1.524220243022558e-16 1.658801197297156e-16
-4.538264040063923e-04 5.285482626847600e-16 -9.003733712997433e-16
-4.538264040050562e-04 7.125075424187490e-16 -8.559452856989508e-16
-4.538264040051573e-04 0.000000000000000e+00 0.000000000000000e+00
-4.538264040053909e-04 0.000000000000000e+00 0.000000000000000e+00
-9.070747024725876e-04 1.648680044208991e-16 -1.994624339337378e-16
-9.070747024724585e-04 -1.524220243022558e-16 1.658801197297156e-16
-9.070747024711969e-04 0.000000000000000e+00 0.000000000000000e+00
-9.070747024720485e-04 0.000000000000000e+00 0.000000000000000e+00
-4.538264040050562e-04 7.125075424187490e-16 -8.559452856989508e-16
-4.538264040061494e-04 0.000000000000000e+00 0.000000000000000e+00
-4.538264040065161e-04 0.000000000000000e+00 0.000000000000000e+00
-4.538264040051573e-04 0.000000000000000e+00 0.000000000000000e+00
-9.070747024724585e-04 -1.524220243022558e-16 1.658801197297156e-16
-9.070747024725444e-04 0.000000000000000e+00 0.000000000000000e+00
-9.070747024714404e-04 0.000000000000000e+00 0.000000000000000e+00
-9.070747024711969e-04 0.000000000000000e+00 0.000000000000000e+00
-9.070747024730009e-04 0.000000000000000e+00 0.000000000000000e+00
-9.070747024715456e-04 0.000000000000000e+00 0.000000000000000e+00
-9.070747024727037e-04 3.547629126136538e-17 5.888246711729171e-16
-9.070747024727678e-04 -1.597613578256863e-17 4.102192730425869e-16
-1.360466801260880e-03 0.000000000000000e+00 0.000000000000000e+00
-1.360466801261256e-03 0.000000000000000e+00 0.000000000000000e+00
-1.360466801261171e-03 -2.815242706851862e-16 -2.714570451838717e-16
-1.360466801260842e-03 6.854490348985413e-16 2.623434596676117e-16
-9.070747024715456e-04 0.000000000000000e+00 0.000000000000000e+00
-9.070747024721908e-04 0.000000000000000e+00 0.000000000000000e+00
-9.070747024723493e-04 0.000000000000000e+00 0.000000000000000e+00
-9.070747024727037e-04 3.547629126136538e-17 5.888246711729171e-16
-1.360466801261256e-03 0.000000000000000e+00 0.000000000000000e+00
-1.360466801260908e-03 0.000000000000000e+00 0.000000000000000e+00
-1.360466801260909e-03 0.000000000000000e+00 0.000000000000000e+00
-1.360466801261171e-03 -2.815242706851862e-16 -2.714570451838717e-16
-9.070747024727678e-04 -1.597613578256863e-17 4.102192730425869e-16
-9.070747024727037e-04 3.547629126136538e-17 5.888246711729171e-16
-9.070747024725823e-04 1.156087661239461e-15 -3.386592777201866e-16
-9.070747024718018e-04 8.357133642956256e-16 9.012523665329920e-16
-1.360466801260842e-03 6.854490348985413e-16 2.623434596676117e-16
-1.360466801261171e-03 -2.815242706851862e-16 -2.714570451838717e-16
-1.360466801260968e-03 5.254055226029367e-16 3.936800160988694e-16
-1.360466801260679e-03 6.948480333283856e-16 6.010424104567725e-17
-9.070747024727037e-04 3.547629126136538e-17 5.888246711729171e-16
-9.070747024723493e-04 0.000000000000000e+00 0.000000000000000e+00
-9.070747024721022e-04 0.000000000000000e+00 0.000000000000000e+00
-9.070747024725823e-04 1.156087661239461e-15 -3.386592777201866e-16
-1.360466801261171e-03 -2.815242706851862e-16 -2.714570451838717e-16
-1.360466801260909e-03 0.000000000000000e+00 0.000000000000000e+00
-1.360466801260403e-03 0.000000000000000e+00 0.000000000000000e+00
-1.360466801260968e-03 5.254055226029367e-16 3.936800160988694e-16
-9.070747024718018e-04 8.357133642956256e-16 9.012523665329920e-16
-9.070747024725823e-04 1.156087661239461e-15 -3.386592777201866e-16
-9.070747024722436e-04 2.947311390967398e-16 -2.977060145480536e-16
-9.070747024725827e-04 2.133860967029513e-16 1.482201870391843e-16
-1.360466801260679e-03 6.948480333283856e-16 6.010424104567725e-17
-1.360466801260968e-03 5.254055226029367e-16 3.936800160988694e-16
-1.360466801260296e-03 7.006307056947103e-16 -3.190871538276477e-16
-1.360466801260643e-03 2.596101249826536e-16 -2.805195409235785e-16
-9.070747024725823e-04 1.156087661239461e-15 -3.386592777201866e-16
-9.070747024721022e-04 0.000000000000000e+00 0.000000000000000e+00
-9.070747024725775e-04 0.000000000000000e+00 0.000000000000000e+00
-9.070747024722436e-04 2.947311390967398e-16 -2.977060145480536e-16
-1.360466801260968e-03 5.254055226029367e-16 3.936800160988694e-16
-1.360466801260403e-03 0.000000000000000e+00 0.000000000000000e+00
-1.360466801260593e-03 0.000000000000000e+00 0.000000000000000e+00
-1.360466801260296e-03 7.006307056947103e-16 -3.190871538276477e-16
-9.070747024725827e-04 2.133860967029513e-16 1.482201870391843e-16
-9.070747024722436e-04 2.947311390967398e-16 -2.977060145480536e-16
-9.070747024724585e-04 -1.524220243022558e-16 1.658801197297156e-16
-9.070747024725876e-04 1.648680044208991e-16 -1.994624339337378e-16
-1.360466801260643e-03 2.596101249826536e-16 -2.805195409235785e-16
-1.360466801260296e-03 7.006307056947103e-16 -3.190871538276477e-16
-1.360466801260933e-03 3.184628399860837e-16 4.014787266391478e-16
-1.360466801261091e-03 9.506934586566232e-16 -2.907996883208956e-17
-9.070747024722436e-04 2.947311390967398e-16 -2.977060145480536e-16
-9.070747024725775e-04 0.000000000000000e+00 0.000000000000000e+00
-9.070747024725444e-04 0.000000000000000e+00 0.000000000000000e+00
-9.070747024724585e-04 -1.524220243022558e-16 1.658801197297156e-16
-1.360466801260296e-03 7.006307056947103e-16 -3.190871538276477e-16
-1.360466801260593e-03 0.000000000000000e+00 0.000000000000000e+00
-1.360466801260328e-03 0.000000000000000e+00 0.000000000000000e+00
-1.360466801260933e-03 3.184628399860837e-16 4.014787266391478e-16
-9.070747024725876e-04 1.648680044208991e-16 -1.994624339337378e-16
-9.070747024724585e-04 -1.524220243022558e-16 1.658801197297156e-16
-9.070747024711969e-04 0.000000000000000e+00 0.000000000000000e+00
-9.070747024720485e-04 0.000000000000000e+00 0.000000000000000e+00
-1.360466801261091e-03 9.506934586566232e-16 -2.907996883208956e-17
-1.360466801260933e-03 3.184628399860837e-16 4.014787266391478e-16
-1.360466801260397e-03 0.000000000000000e+00 0.000000000000000e+00
-1.360466801260579e-03 0.000000000000000e+00 0.000000000000000e+00
-9.070747024724585e-04 -1.524220243022558e-16 1.658801197297156e-16
-9.070747024725444e-04 0.000000000000000e+00 0.000000000000000e+00
-9.070747024714404e-04 0.000000000000000e+00 0.000000000000000e+00
-9.070747024711969e-04 0.000000000000000e+00 0.000000000000000e+00
-1.360466801260933e-03 3.184628399860837e-16 4.014787266391478e-16
-1.360466801260328e-03 0.000000000000000e+00 0.000000000000000e+00
-1.360466801259643e-03 0.000000000000000e+00 0.000000000000000e+00
-1.360466801260397e-03 0.000000000000000e+00 0.000000000000000e+00
-1.360466801260880e-03 0.000000000000000e+00 0.000000000000000e+00
-1.360466801261256e-03 0.000000000000000e+00 0.000000000000000e+00
-1.360466801261171e-03 -2.815242706851862e-16 -2.714570451838717e-16
-1.360466801260842e-03 6.854490348985413e-16 2.623434596676117e-16
-1.814801405133442e-03 0.000000000000000e+00 0.000000000000000e+00
-1.814801405132615e-03 0.000000000000000e+00 0.000000000000000e+00
-1.814801405133182e-03 -7.007126249844525e-16 5.990242305466744e-16
-1.814801405132633e-03 -4.776686640559282e-16 4.300741978807861e-16
-1.360466801261256e-03 0.000000000000000e+00 0.000000000000000e+00
-1.360466801260908e-03 0.000000000000000e+00 0.000000000000000e+00
-1.360466801260909e-03 0.000000000000000e+00 0.000000000000000e+00
-1.360466801261171e-03 -2.815242706851862e-16 -2.714570451838717e-16
-1.814801405132615e-03 0.000000000000000e+00 0.000000000000000e+00
-1.814801405133510e-03 0.000000000000000e+00 0.000000000000000e+00
-1.814801405133347e-03 0.000000000000000e+00 0.000000000000000e+00
-1.814801405133182e-03 -7.007126249844525e-16 5.990242305466744e-16
-1.360466801260842e-03 6.854490348985413e-16 2.623434596676117e-16
-1.360466801261171e-03 -2.815242706851862e-16 -2.714570451838717e-16
-1.360466801260968e-03 5.254055226029367e-16 3.936800160988694e-16
-1.360466801260679e-03 6.948480333283856e-16 6.010424104567725e-17
-1.814801405132633e-03 -4.776686640559282e-16 4.300741978807861e-16
-1.814801405133182e-03 -7.007126249844525e-16 5.990242305466744e-16
-1.814801405132994e-03 6.186702960497856e-16 -3.167387258897495e-16
-1.814801405133487e-03 1.095387649074805e-15 -8.863038377945227e-17
-1.360466801261171e-03 -2.815242706851862e-16 -2.714570451838717e-16
-1.360466801260909e-03 0.000000000000000e+00 0.000000000000000e+00
-1.360466801260403e-03 0.000000000000000e+00 0.000000000000000e+00
-1.360466801260968e-03 5.254055226029367e-16 3.936800160988694e-16
-1.814801405133182e-03 -7.007126249844525e-16 5.990242305466744e-16
-1.814801405133347e-03 0.000000000000000e+00 0.000000000000000e+00
-1.814801405133385e-03 0.000000000000000e+00 0.000000000000000e+00
-1.814801405132994e-03 6.186702960497856e-16 -3.167387258897495e-16
-1.360466801260679e-03 6.948480333283856e-16 6.010424104567725e-17
-1.360466801260968e-03 5.254055226029367e-16 3.936800160988694e-16
-1.360466801260296e-03 7.006307056947103e-16 -3.190871538276477e-16
-1.360466801260643e-03 2.596101249826536e-16 -2.805195409235785e-16
-1.814801405133487e-03 1.095387649074805e-15 -8.863038377945227e-17
-1.814801405132994e-03 6.186702960497856e-16 -3.167387258897495e-16
-1.814801405133128e-03 5.206840583114478e-16 -3.406326857326319e-16
-1.814801405132446e-03 3.617934068135430e-16 6.742130962035172e-17
-1.360466801260968e-03 5.254055226029367e-16 3.936800160988694e-16
-1.360466801260403e-03 0.000000000000000e+00 0.000000000000000e+00
-1.360466801260593e-03 0.000000000000000e+00 0.000000000000000e+00
-1.360466801260296e-03 7.006307056947103e-16 -3.190871538276477e-16
-1.814801405132994e-03 6.186702960497856e-16 -3.167387258897495e-16
-1.814801405133385e-03 0.000000000000000e+00 0.000000000000000e+00
-1.814801405131949e-03 0.000000000000000e+00 0.000000000000000e+00
-1.814801405133128e-03 5.206840583114478e-16 -3.406326857326319e-16
-1.360466801260643e-03 2.596101249826536e-16 -2.805195409235785e-16
-1.360466801260296e-03 7.006307056947103e-16 -3.190871538276477e-16
-1.360466801260933e-03 3.184628399860837e-16 4.014787266391478e-16
-1.360466801261091e-03 9.506934586566232e-16 -2.907996883208956e-17
-1.814801405132446e-03 3.617934068135430e-16 6.742130962035172e-17
-1.814801405133128e-03 5.206840583114478e-16 -3.406326857326319e-16
-1.814801405132827e-03 -5.464382964020537e-16 -5.798073484521390e-16