<?xml version="1.0" ?> 
<!-- 
# vtk DataFile Version 3.0
-->
<VTKFile type="UnstructuredGrid" version="0.1" compressor="vtkZLibDataCompressor" byte_order="LittleEndian">
  <UnstructuredGrid>
    <FieldData>
      <DataArray type="Float64" Name="TIME" NumberOfTuples="1" format="ascii">
9.999999999999999e-02 
      </DataArray>
    </FieldData>

    <Piece NumberOfPoints="600" NumberOfCells="75" >
      <Points>
        <DataArray type="Float64" NumberOfComponents="3" format="ascii">
-5.000000000000000e+00 -5.000000000000000e+00 5.000000000000000e+00
-5.000000000000000e+00 -5.000000000000000e+00 3.000000000000000e+00
-5.000000000000000e+00 -3.000000000000000e+00 3.000000000000000e+00
-5.000000000000000e+00 -3.000000000000000e+00 5.000000000000000e+00
-3.000000000000000e+00 -5.000000000000000e+00 5.000000000000000e+00
-3.000000000000000e+00 -5.000000000000000e+00 3.000000000000000e+00
-3.000000000000000e+00 -3.000000000000000e+00 3.000000000000000e+00
-3.000000000000000e+00 -3.000000000000000e+00 4.999999999999999e+00
-5.000000000000000e+00 -5.000000000000000e+00 3.000000000000000e+00
-5.000000000000000e+00 -5.000000000000000e+00 1.000000000000000e+00
-5.000000000000000e+00 -3.000000000000000e+00 1.000000000000000e+00
-5.000000000000000e+00 -3.000000000000000e+00 3.000000000000000e+00
-3.000000000000000e+00 -5.000000000000000e+00 3.000000000000000e+00
-3.000000000000000e+00 -5.000000000000000e+00 1.000000000000000e+00
-3.000000000000000e+00 -3.000000000000000e+00 1.000000000000000e+00
-3.000000000000000e+00 -3.000000000000000e+00 3.000000000000000e+00
-5.000000000000000e+00 -5.000000000000000e+00 1.000000000000000e+00
-5.000000000000000e+00 -5.000000000000000e+00 -1.000000000000000e+00
-5.000000000000000e+00 -3.000000000000000e+00 -1.000000000000000e+00
-5.000000000000000e+00 -3.000000000000000e+00 1.000000000000000e+00
-3.000000000000000e+00 -5.000000000000000e+00 1.000000000000000e+00
-3.000000000000000e+00 -5.000000000000000e+00 -1.000000000000000e+00
-3.000000000000000e+00 -3.000000000000000e+00 -1.000000000000000e+00
-3.000000000000000e+00 -3.000000000000000e+00 1.000000000000000e+00
-5.000000000000000e+00 -3.000000000000000e+00 5.000000000000000e+00
-5.000000000000000e+00 -3.000000000000000e+00 3.000000000000000e+00
-5.000000000000000e+00 -1.000000000000000e+00 3.000000000000000e+00
-5.000000000000000e+00 -1.000000000000000e+00 5.000000000000000e+00
-3.000000000000000e+00 -3.000000000000000e+00 4.999999999999999e+00
-3.000000000000000e+00 -3.000000000000000e+00 3.000000000000000e+00
-3.000000000000000e+00 -1.000000000000001e+00 3.000000000000000e+00
-3.000000000000000e+00 -1.000000000000000e+00 5.000000000000000e+00
-5.000000000000000e+00 -3.000000000000000e+00 3.000000000000000e+00
-5.000000000000000e+00 -3.000000000000000e+00 1.000000000000000e+00
-5.000000000000000e+00 -1.000000000000000e+00 1.000000000000000e+00
-5.000000000000000e+00 -1.000000000000000e+00 3.000000000000000e+00
-3.000000000000000e+00 -3.000000000000000e+00 3.000000000000000e+00
-3.000000000000000e+00 -3.000000000000000e+00 1.000000000000000e+00
-3.000000000000000e+00 -1.000000000000000e+00 1.000000000000000e+00
-3.000000000000000e+00 -1.000000000000001e+00 3.000000000000000e+00
-5.000000000000000e+00 -3.000000000000000e+00 1.000000000000000e+00
-5.000000000000000e+00 -3.000000000000000e+00 -1.000000000000000e+00
-5.000000000000000e+00 -1.000000000000000e+00 -1.000000000000000e+00
-5.000000000000000e+00 -1.000000000000000e+00 1.000000000000000e+00
-3.000000000000000e+00 -3.000000000000000e+00 1.000000000000000e+00
-3.000000000000000e+00 -3.000000000000000e+00 -1.000000000000000e+00
-3.000000000000000e+00 -1.000000000000000e+00 -1.000000000000000e+00
-3.000000000000000e+00 -1.000000000000000e+00 1.000000000000000e+00
-5.000000000000000e+00 -1.000000000000000e+00 5.000000000000000e+00
-5.000000000000000e+00 -1.000000000000000e+00 3.000000000000000e+00
-5.000000000000000e+00 1.000000000000000e+00 3.000000000000000e+00
-5.000000000000000e+00 1.000000000000000e+00 5.000000000000000e+00
-3.000000000000000e+00 -1.000000000000000e+00 5.000000000000000e+00
-3.000000000000000e+00 -1.000000000000001e+00 3.000000000000000e+00
-3.000000000000000e+00 1.000000000000000e+00 3.000000000000000e+00
-3.000000000000000e+00 1.000000000000000e+00 5.000000000000000e+00
-5.000000000000000e+00 -1.000000000000000e+00 3.000000000000000e+00
-5.000000000000000e+00 -1.000000000000000e+00 1.000000000000000e+00
-5.000000000000000e+00 1.000000000000000e+00 1.000000000000000e+00
-5.000000000000000e+00 1.000000000000000e+00 3.000000000000000e+00
-3.000000000000000e+00 -1.000000000000001e+00 3.000000000000000e+00
-3.000000000000000e+00 -1.000000000000000e+00 1.000000000000000e+00
-3.000000000000000e+00 1.000000000000000e+00 1.000000000000000e+00
-3.000000000000000e+00 1.000000000000000e+00 3.000000000000000e+00
-5.000000000000000e+00 -1.000000000000000e+00 1.000000000000000e+00
-5.000000000000000e+00 -1.000000000000000e+00 -1.000000000000000e+00
-5.000000000000000e+00 1.000000000000000e+00 -1.000000000000000e+00
-5.000000000000000e+00 1.000000000000000e+00 1.000000000000000e+00
-3.000000000000000e+00 -1.000000000000000e+00 1.000000000000000e+00
-3.000000000000000e+00 -1.000000000000000e+00 -1.000000000000000e+00
-3.000000000000000e+00 1.000000000000000e+00 -1.000000000000000e+00
-3.000000000000000e+00 1.000000000000000e+00 1.000000000000000e+00
-5.000000000000000e+00 1.000000000000000e+00 5.000000000000000e+00
-5.000000000000000e+00 1.000000000000000e+00 3.000000000000000e+00
-5.000000000000000e+00 3.000000000000000e+00 3.000000000000000e+00
-5.000000000000000e+00 3.000000000000000e+00 5.000000000000000e+00
-3.000000000000000e+00 1.000000000000000e+00 5.000000000000000e+00
-3.000000000000000e+00 1.000000000000000e+00 3.000000000000000e+00
-3.000000000000000e+00 3.000000000000000e+00 3.000000000000000e+00
-3.000000000000000e+00 3.000000000000000e+00 5.000000000000000e+00
-5.000000000000000e+00 1.000000000000000e+00 3.000000000000000e+00
-5.000000000000000e+00 1.000000000000000e+00 1.000000000000000e+00
-5.000000000000000e+00 3.000000000000000e+00 1.000000000000000e+00
-5.000000000000000e+00 3.000000000000000e+00 3.000000000000000e+00
-3.000000000000000e+00 1.000000000000000e+00 3.000000000000000e+00
-3.000000000000000e+00 1.000000000000000e+00 1.000000000000000e+00
-3.000000000000000e+00 3.000000000000000e+00 1.000000000000000e+00
-3.000000000000000e+00 3.000000000000000e+00 3.000000000000000e+00
-5.000000000000000e+00 1.000000000000000e+00 1.000000000000000e+00
-5.000000000000000e+00 1.000000000000000e+00 -1.000000000000000e+00
-5.000000000000000e+00 3.000000000000000e+00 -1.000000000000000e+00
-5.000000000000000e+00 3.000000000000000e+00 1.000000000000000e+00
-3.000000000000000e+00 1.000000000000000e+00 1.000000000000000e+00
-3.000000000000000e+00 1.000000000000000e+00 -1.000000000000000e+00
-3.000000000000000e+00 3.000000000000000e+00 -9.999999999999999e-01
-3.000000000000000e+00 3.000000000000000e+00 1.000000000000000e+00
-5.000000000000000e+00 3.000000000000000e+00 5.000000000000000e+00
-5.000000000000000e+00 3.000000000000000e+00 3.000000000000000e+00
-5.000000000000000e+00 5.000000000000000e+00 3.000000000000000e+00
-5.000000000000000e+00 5.000000000000000e+00 5.000000000000000e+00
-3.000000000000000e+00 3.000000000000000e+00 5.000000000000000e+00
-3.000000000000000e+00 3.000000000000000e+00 3.000000000000000e+00
-3.000000000000000e+00 4.999999999999999e+00 3.000000000000000e+00
-3.000000000000000e+00 5.000000000000000e+00 5.000000000000000e+00
-5.000000000000000e+00 3.000000000000000e+00 3.000000000000000e+00
-5.000000000000000e+00 3.000000000000000e+00 1.000000000000000e+00
-5.000000000000000e+00 5.000000000000000e+00 1.000000000000000e+00
-5.000000000000000e+00 5.000000000000000e+00 3.000000000000000e+00
-3.000000000000000e+00 3.000000000000000e+00 3.000000000000000e+00
-3.000000000000000e+00 3.000000000000000e+00 1.000000000000000e+00
-3.000000000000000e+00 5.000000000000000e+00 1.000000000000000e+00
-3.000000000000000e+00 4.999999999999999e+00 3.000000000000000e+00
-5.000000000000000e+00 3.000000000000000e+00 1.000000000000000e+00
-5.000000000000000e+00 3.000000000000000e+00 -1.000000000000000e+00
-5.000000000000000e+00 5.000000000000000e+00 -1.000000000000000e+00
-5.000000000000000e+00 5.000000000000000e+00 1.000000000000000e+00
-3.000000000000000e+00 3.000000000000000e+00 1.000000000000000e+00
-3.000000000000000e+00 3.000000000000000e+00 -9.999999999999999e-01
-3.000000000000000e+00 5.000000000000000e+00 -1.000000000000000e+00
-3.000000000000000e+00 5.000000000000000e+00 1.000000000000000e+00
-3.000000000000000e+00 -5.000000000000000e+00 5.000000000000000e+00
-3.000000000000000e+00 -5.000000000000000e+00 3.000000000000000e+00
-3.000000000000000e+00 -3.000000000000000e+00 3.000000000000000e+00
-3.000000000000000e+00 -3.000000000000000e+00 4.999999999999999e+00
-1.000000000000000e+00 -5.000000000000000e+00 5.000000000000000e+00
-1.000000000000000e+00 -5.000000000000000e+00 3.000000000000000e+00
-1.000000000000000e+00 -3.000000000000000e+00 3.000000000000000e+00
-1.000000000000000e+00 -3.000000000000000e+00 5.000000000000000e+00
-3.000000000000000e+00 -5.000000000000000e+00 3.000000000000000e+00
-3.000000000000000e+00 -5.000000000000000e+00 1.000000000000000e+00
-3.000000000000000e+00 -3.000000000000000e+00 1.000000000000000e+00
-3.000000000000000e+00 -3.000000000000000e+00 3.000000000000000e+00
-1.000000000000000e+00 -5.000000000000000e+00 3.000000000000000e+00
-1.000000000000000e+00 -5.000000000000000e+00 1.000000000000000e+00
-1.000000000000000e+00 -3.000000000000000e+00 1.000000000000000e+00
-1.000000000000000e+00 -3.000000000000000e+00 3.000000000000000e+00
-3.000000000000000e+00 -5.000000000000000e+00 1.000000000000000e+00
-3.000000000000000e+00 -5.000000000000000e+00 -1.000000000000000e+00
-3.000000000000000e+00 -3.000000000000000e+00 -1.000000000000000e+00
-3.000000000000000e+00 -3.000000000000000e+00 1.000000000000000e+00
[...]
  <PointData>
        <DataArray type="Float64" Name="displacement" NumberOfComponents="3" format="ascii">
0.000000000000000e+00 0.000000000000000e+00 0.000000000000000e+00
0.000000000000000e+00 0.000000000000000e+00 0.000000000000000e+00
0.000000000000000e+00 0.000000000000000e+00 0.000000000000000e+00
0.000000000000000e+00 0.000000000000000e+00 0.000000000000000e+00
-4.538264040059928e-04 0.000000000000000e+00 0.000000000000000e+00
-4.538264040056105e-04 0.000000000000000e+00 0.000000000000000e+00
-4.538264040055615e-04 -7.038780167309721e-16 -6.446883262916366e-16
-4.538264040056755e-04 0.000000000000000e+00 0.000000000000000e+00
0.000000000000000e+00 0.000000000000000e+00 0.000000000000000e+00
0.000000000000000e+00 0.000000000000000e+00 0.000000000000000e+00
0.000000000000000e+00 0.000000000000000e+00 0.000000000000000e+00
0.000000000000000e+00 0.000000000000000e+00 0.000000000000000e+00
-4.538264040056105e-04 0.000000000000000e+00 0.000000000000000e+00
-4.538264040055727e-04 0.000000000000000e+00 0.000000000000000e+00
-4.538264040064304e-04 -3.708210080115590e-16 -2.275105378866358e-17
-4.538264040055615e-04 -7.038780167309721e-16 -6.446883262916366e-16
0.000000000000000e+00 0.000000000000000e+00 0.000000000000000e+00
0.000000000000000e+00 0.000000000000000e+00 0.000000000000000e+00
0.000000000000000e+00 0.000000000000000e+00 0.000000000000000e+00
0.000000000000000e+00 0.000000000000000e+00 0.000000000000000e+00
-4.538264040055727e-04 0.000000000000000e+00 0.000000000000000e+00
-4.538264040063111e-04 0.000000000000000e+00 0.000000000000000e+00
-4.538264040062028e-04 1.823932529588109e-16 -6.745627683353668e-17
-4.538264040064304e-04 -3.708210080115590e-16 -2.275105378866358e-17
0.000000000000000e+00 0.000000000000000e+00 0.000000000000000e+00
0.000000000000000e+00 0.000000000000000e+00 0.000000000000000e+00
0.000000000000000e+00 0.000000000000000e+00 0.000000000000000e+00
0.000000000000000e+00 0.000000000000000e+00 0.000000000000000e+00
-4.538264040056755e-04 0.000000000000000e+00 0.000000000000000e+00
-4.538264040055615e-04 -7.038780167309721e-16 -6.446883262916366e-16
-4.538264040060266e-04 1.115746403685555e-16 6.602890454639140e-16
-4.538264040052284e-04 0.000000000000000e+00 0.000000000000000e+00
0.000000000000000e+00 0.000000000000000e+00 0.000000000000000e+00
0.000000000000000e+00 0.000000000000000e+00 0.000000000000000e+00
0.000000000000000e+00 0.000000000000000e+00 0.000000000000000e+00
0.000000000000000e+00 0.000000000000000e+00 0.000000000000000e+00
-4.538264040055615e-04 -7.038780167309721e-16 -6.446883262916366e-16
-4.538264040064304e-04 -3.708210080115590e-16 -2.275105378866358e-17
-4.538264040062686e-04 -5.807818955387890e-17 -2.062774584216430e-16
-4.538264040060266e-04 1.115746403685555e-16 6.602890454639140e-16
0.000000000000000e+00 0.000000000000000e+00 0.000000000000000e+00
0.000000000000000e+00 0.000000000000000e+00 0.000000000000000e+00
0.000000000000000e+00 0.000000000000000e+00 0.000000000000000e+00
0.000000000000000e+00 0.000000000000000e+00 0.000000000000000e+00
-4.538264040064304e-04 -3.708210080115590e-16 -2.275105378866358e-17
-4.538264040062028e-04 1.823932529588109e-16 -6.745627683353668e-17
-4.538264040060482e-04 1.894379161536975e-16 1.368739941782975e-17
-4.538264040062686e-04 -5.807818955387890e-17 -2.062774584216430e-16
0.000000000000000e+00 0.000000000000000e+00 0.000000000000000e+00
0.000000000000000e+00 0.000000000000000e+00 0.000000000000000e+00
0.000000000000000e+00 0.000000000000000e+00 0.000000000000000e+00
0.000000000000000e+00 0.000000000000000e+00 0.000000000000000e+00
-4.538264040052284e-04 0.000000000000000e+00 0.000000000000000e+00
-4.538264040060266e-04 1.115746403685555e-16 6.602890454639140e-16
-4.538264040058723e-04 1.419136244863900e-16 -1.242300971299485e-16
-4.538264040058556e-04 0.000000000000000e+00 0.000000000000000e+00
0.000000000000000e+00 0.000000000000000e+00 0.000000000000000e+00
0.000000000000000e+00 0.000000000000000e+00 0.000000000000000e+00
0.000000000000000e+00 0.000000000000000e+00 0.000000000000000e+00
0.000000000000000e+00 0.000000000000000e+00 0.000000000000000e+00
-4.538264040060266e-04 1.115746403685555e-16 6.602890454639140e-16
-4.538264040062686e-04 -5.807818955387890e-17 -2.062774584216430e-16
-4.538264040059284e-04 1.413181906694520e-16 -5.053471276361005e-16
-4.538264040058723e-04 1.419136244863900e-16 -1.242300971299485e-16
0.000000000000000e+00 0.000000000000000e+00 0.000000000000000e+00
0.000000000000000e+00 0.000000000000000e+00 0.000000000000000e+00
0.000000000000000e+00 0.000000000000000e+00 0.000000000000000e+00
0.000000000000000e+00 0.000000000000000e+00 0.000000000000000e+00
-4.538264040062686e-04 -5.807818955387890e-17 -2.062774584216430e-16
-4.538264040060482e-04 1.894379161536975e-16 1.368739941782975e-17
-4.538264040060357e-04 4.390270872949656e-17 4.230361471732551e-16
-4.538264040059284e-04 1.413181906694520e-16 -5.053471276361005e-16
0.000000000000000e+00 0.000000000000000e+00 0.000000000000000e+00
0.000000000000000e+00 0.000000000000000e+00 0.000000000000000e+00
0.000000000000000e+00 0.000000000000000e+00 0.000000000000000e+00
0.000000000000000e+00 0.000000000000000e+00 0.000000000000000e+00
-4.538264040058556e-04 0.000000000000000e+00 0.000000000000000e+00
-4.538264040058723e-04 1.419136244863900e-16 -1.242300971299485e-16
-4.538264040058712e-04 -2.582774361853690e-17 8.476369417384357e-17
-4.538264040062725e-04 0.000000000000000e+00 0.000000000000000e+00
0.000000000000000e+00 0.000000000000000e+00 0.000000000000000e+00
0.000000000000000e+00 0.000000000000000e+00 0.000000000000000e+00
0.000000000000000e+00 0.000000000000000e+00 0.000000000000000e+00
0.000000000000000e+00 0.000000000000000e+00 0.000000000000000e+00
-4.538264040058723e-04 1.419136244863900e-16 -1.242300971299485e-16
-4.538264040059284e-04 1.413181906694520e-16 -5.053471276361005e-16
-4.538264040061086e-04 3.189042633767079e-16 -1.714197561504715e-18
-4.538264040058712e-04 -2.582774361853690e-17 8.476369417384357e-17
0.000000000000000e+00 0.000000000000000e+00 0.000000000000000e+00
0.000000000000000e+00 0.000000000000000e+00 0.000000000000000e+00
0.000000000000000e+00 0.000000000000000e+00 0.000000000000000e+00
0.000000000000000e+00 0.000000000000000e+00 0.000000000000000e+00
-4.538264040059284e-04 1.413181906694520e-16 -5.053471276361005e-16
-4.538264040060357e-04 4.390270872949656e-17 4.230361471732551e-16
-4.538264040064198e-04 5.175150813686785e-16 -8.581640785169329e-16
-4.538264040061086e-04 3.189042633767079e-16 -1.714197561504715e-18
0.000000000000000e+00 0.000000000000000e+00 0.000000000000000e+00
0.000000000000000e+00 0.000000000000000e+00 0.000000000000000e+00
0.000000000000000e+00 0.000000000000000e+00 0.000000000000000e+00
0.000000000000000e+00 0.000000000000000e+00 0.000000000000000e+00
-4.538264040062725e-04 0.000000000000000e+00 0.000000000000000e+00
-4.538264040058712e-04 -2.582774361853690e-17 8.476369417384357e-17
-4.538264040060135e-04 0.000000000000000e+00 0.000000000000000e+00
-4.538264040050014e-04 0.000000000000000e+00 0.000000000000000e+00
0.000000000000000e+00 0.000000000000000e+00 0.000000000000000e+00
0.000000000000000e+00 0.000000000000000e+00 0.000000000000000e+00
0.000000000000000e+00 0.000000000000000e+00 0.000000000000000e+00
0.000000000000000e+00 0.000000000000000e+00 0.000000000000000e+00
-4.538264040058712e-04 -2.582774361853690e-17 8.476369417384357e-17
-4.538264040061086e-04 3.189042633767079e-16 -1.714197561504715e-18
-4.538264040062118e-04 0.000000000000000e+00 0.000000000000000e+00
-4.538264040060135e-04 0.000000000000000e+00 0.000000000000000e+00
0.000000000000000e+00 0.000000000000000e+00 0.000000000000000e+00
0.000000000000000e+00 0.000000000000000e+00 0.000000000000000e+00
0.000000000000000e+00 0.000000000000000e+00 0.000000000000000e+00
0.000000000000000e+00 0.000000000000000e+00 0.000000000000000e+00
-4.538264040061086e-04 3.189042633767079e-16 -1.714197561504715e-18
-4.538264040064198e-04 5.175150813686785e-16 -8.581640785169329e-16
-4.538264040053545e-04 0.000000000000000e+00 0.000000000000000e+00
-4.538264040062118e-04 0.000000000000000e+00 0.000000000000000e+00
-4.538264040059928e-04 0.000000000000000e+00 0.000000000000000e+00
-4.538264040056105e-04 0.000000000000000e+00 0.000000000000000e+00
-4.538264040055615e-04 -7.038780167309721e-16 -6.446883262916366e-16
-4.538264040056755e-04 0.000000000000000e+00 0.000000000000000e+00
-9.070747024732383e-04 0.000000000000000e+00 0.000000000000000e+00
-9.070747024710812e-04 0.000000000000000e+00 0.000000000000000e+00
-9.070747024717077e-04 3.615863306054235e-16 -1.077055660546968e-15
-9.070747024716158e-04 0.000000000000000e+00 0.000000000000000e+00
-4.538264040056105e-04 0.000000000000000e+00 0.000000000000000e+00
-4.538264040055727e-04 0.000000000000000e+00 0.000000000000000e+00
-4.538264040064304e-04 -3.708210080115590e-16 -2.275105378866358e-17
-4.538264040055615e-04 -7.038780167309721e-16 -6.446883262916366e-16
-9.070747024710812e-04 0.000000000000000e+00 0.000000000000000e+00
-9.070747024728404e-04 0.000000000000000e+00 0.000000000000000e+00
-9.070747024725137e-04 -8.517989818089328e-16 3.936043444939145e-16
-9.070747024717077e-04 3.615863306054235e-16 -1.077055660546968e-15
-4.538264040055727e-04 0.000000000000000e+00 0.000000000000000e+00
-4.538264040063111e-04 0.000000000000000e+00 0.000000000000000e+00
-4.538264040062028e-04 1.823932529588109e-16 -6.745627683353668e-17
-4.538264040064304e-04 -3.708210080115590e-16 -2.275105378866358e-17
-9.070747024728404e-04 0.000000000000000e+00 0.000000000000000e+00
-9.070747024729855e-04 0.000000000000000e+00 0.000000000000000e+00
-9.070747024727610e-04 -5.122285212265228e-17 1.525577720731473e-16
-9.070747024725137e-04 -8.517989818089328e-16 3.936043444939145e-16
-4.538264040056755e-04 0.000000000000000e+00 0.000000000000000e+00
-4.538264040055615e-04 -7.038780167309721e-16 -6.446883262916366e-16
-4.538264040060266e-04 1.115746403685555e-16 6.602890454639140e-16
-4.538264040052284e-04 0.000000000000000e+00 0.000000000000000e+00
-9.070747024716158e-04 0.000000000000000e+00 0.000000000000000e+00
-9.070747024717077e-04 3.615863306054235e-16 -1.077055660546968e-15
-9.070747024720362e-04 -2.510414479976052e-16 5.385316267530211e-16
-9.070747024716053e-04 0.000000000000000e+00 0.000000000000000e+00
-4.538264040055615e-04 -7.038780167309721e-16 -6.446883262916366e-16
-4.538264040064304e-04 -3.708210080115590e-16 -2.275105378866358e-17
-4.538264040062686e-04 -5.807818955387890e-17 -2.062774584216430e-16
-4.538264040060266e-04 1.115746403685555e-16 6.602890454639140e-16
-9.070747024717077e-04 3.615863306054235e-16 -1.077055660546968e-15
-9.070747024725137e-04 -8.517989818089328e-16 3.936043444939145e-16
-9.070747024724188e-04 2.495111244316308e-16 6.954843784517399e-17
-9.070747024720362e-04 -2.510414479976052e-16 5.385316267530211e-16
-4.538264040064304e-04 -3.708210080115590e-16 -2.275105378866358e-17
-4.538264040062028e-04 1.823932529588109e-16 -6.745627683353668e-17
-4.538264040060482e-04 1.894379161536975e-16 1.368739941782975e-17
-4.538264040062686e-04 -5.807818955387890e-17 -2.062774584216430e-16
-9.070747024725137e-04 -8.517989818089328e-16 3.936043444939145e-16
-9.070747024727610e-04 -5.122285212265228e-17 1.525577720731473e-16
-9.070747024717430e-04 8.677548232725138e-16 8.488301227283881e-16
-9.070747024724188e-04 2.495111244316308e-16 6.954843784517399e-17
-4.538264040052284e-04 0.000000000000000e+00 0.000000000000000e+00
-4.538264040060266e-04 1.115746403685555e-16 6.602890454639140e-16
-4.538264040058723e-04 1.419136244863900e-16 -1.242300971299485e-16
-4.538264040058556e-04 0.000000000000000e+00 0.000000000000000e+00
-9.070747024716053e-04 0.000000000000000e+00 0.000000000000000e+00
-9.070747024720362e-04 -2.510414479976052e-16 5.385316267530211e-16
-9.070747024719595e-04 -9.229754806924821e-17 2.573849800144117e-17
-9.070747024716527e-04 0.000000000000000e+00 0.000000000000000e+00
-4.538264040060266e-04 1.115746403685555e-16 6.602890454639140e-16
-4.538264040062686e-04 -5.807818955387890e-17 -2.062774584216430e-16
-4.538264040059284e-04 1.413181906694520e-16 -5.053471276361005e-16
-4.538264040058723e-04 1.419136244863900e-16 -1.242300971299485e-16
-9.070747024720362e-04 -2.510414479976052e-16 5.385316267530211e-16
-9.070747024724188e-04 2.495111244316308e-16 6.954843784517399e-17
-9.070747024719001e-04 3.034810172347377e-17 -2.025745515208202e-16
-9.070747024719595e-04 -9.229754806924821e-17 2.573849800144117e-17
-4.538264040062686e-04 -5.807818955387890e-17 -2.062774584216430e-16
-4.538264040060482e-04 1.894379161536975e-16 1.368739941782975e-17
-4.538264040060357e-04 4.390270872949656e-17 4.230361471732551e-16
-4.538264040059284e-04 1.413181906694520e-16 -5.053471276361005e-16
-9.070747024724188e-04 2.495111244316308e-16 6.954843784517399e-17
-9.070747024717430e-04 8.677548232725138e-16 8.488301227283881e-16
-9.070747024724965e-04 2.103426443755520e-16 1.594631120217480e-16
-9.070747024719001e-04 3.034810172347377e-17 -2.025745515208202e-16
-4.538264040058556e-04 0.000000000000000e+00 0.000000000000000e+00
-4.538264040058723e-04 1.419136244863900e-16 -1.242300971299485e-16
-4.538264040058712e-04 -2.582774361853690e-17 8.476369417384357e-17
-4.538264040062725e-04 0.000000000000000e+00 0.000000000000000e+00
-9.070747024716527e-04 0.000000000000000e+00 0.000000000000000e+00
-9.070747024719595e-04 -9.229754806924821e-17 2.573849800144117e-17
-9.070747024725580e-04 -8.852741053867211e-17 8.097295642224966e-17
-9.070747024719357e-04 0.000000000000000e+00 0.000000000000000e+00
-4.538264040058723e-04 1.419136244863900e-16 -1.242300971299485e-16
-4.538264040059284e-04 1.413181906694520e-16 -5.053471276361005e-16
-4.538264040061086e-04 3.189042633767079e-16 -1.714197561504715e-18
-4.538264040058712e-04 -2.582774361853690e-17 8.476369417384357e-17
-9.070747024719595e-04 -9.229754806924821e-17 2.573849800144117e-17
-9.070747024719001e-04 3.034810172347377e-17 -2.025745515208202e-16
-9.070747024720623e-04 5.167523041537589e-16 2.284649612679737e-17
-9.070747024725580e-04 -8.852741053867211e-17 8.097295642224966e-17
-4.538264040059284e-04 1.413181906694520e-16 -5.053471276361005e-16
-4.538264040060357e-04 4.390270872949656e-17 4.230361471732551e-16
-4.538264040064198e-04 5.175150813686785e-16 -8.581640785169329e-16
-4.538264040061086e-04 3.189042633767079e-16 -1.714197561504715e-18
-9.070747024719001e-04 3.034810172347377e-17 -2.025745515208202e-16
-9.070747024724965e-04 2.103426443755520e-16 1.594631120217480e-16
-9.070747024726748e-04 1.525233715870849e-16 -4.628327717678566e-16
-9.070747024720623e-04 5.167523041537589e-16 2.284649612679737e-17
-4.538264040062725e-04 0.000000000000000e+00 0.000000000000000e+00
-4.538264040058712e-04 -2.582774361853690e-17 8.476369417384357e-17
-4.538264040060135e-04 0.000000000000000e+00 0.000000000000000e+00
-4.538264040050014e-04 0.000000000000000e+00 0.000000000000000e+00
-9.070747024719357e-04 0.000000000000000e+00 0.000000000000000e+00
-9.070747024725580e-04 -8.852741053867211e-17 8.097295642224966e-17
-9.070747024718610e-04 0.000000000000000e+00 0.000000000000000e+00
-9.070747024721859e-04 0.000000000000000e+00 0.000000000000000e+00
-4.538264040058712e-04 -2.582774361853690e-17 8.476369417384357e-17
-4.538264040061086e-04 3.189042633767079e-16 -1.714197561504715e-18
-4.538264040062118e-04 0.000000000000000e+00 0.000000000000000e+00
-4.538264040060135e-04 0.000000000000000e+00 0.000000000000000e+00
-9.070747024725580e-04 -8.852741053867211e-17 8.097295642224966e-17
-9.070747024720623e-04 5.167523041537589e-16 2.284649612679737e-17
-9.070747024718845e-04 0.000000000000000e+00 0.000000000000000e+00
-9.070747024718610e-04 0.000000000000000e+00 0.000000000000000e+00
-4.538264040061086e-04 3.189042633767079e-16 -1.714197561504715e-18
-4.538264040064198e-04 5.175150813686785e-16 -8.581640785169329e-16
-4.538264040053545e-04 0.000000000000000e+00 0.000000000000000e+00
-4.538264040062118e-04 0.000000000000000e+00 0.000000000000000e+00
-9.070747024720623e-04 5.167523041537589e-16 2.284649612679737e-17
-9.070747024726748e-04 1.525233715870849e-16 -4.628327717678566e-16
-9.070747024720198e-04 0.000000000000000e+00 0.000000000000000e+00
-9.070747024718845e-04 0.000000000000000e+00 0.000000000000000e+00
-9.070747024732383e-04 0.000000000000000e+00 0.000000000000000e+00
-9.070747024710812e-04 0.000000000000000e+00 0.000000000000000e+00
-9.070747024717077e-04 3.615863306054235e-16 -1.077055660546968e-15
-9.070747024716158e-04 0.000000000000000e+00 0.000000000000000e+00
-1.360466801259559e-03 0.000000000000000e+00 0.000000000000000e+00
-1.360466801260546e-03 0.000000000000000e+00 0.000000000000000e+00
-1.360466801260618e-03 5.549851444550154e-16 -2.039446772280215e-16
-1.360466801260840e-03 0.000000000000000e+00 0.000000000000000e+00
-9.070747024710812e-04 0.000000000000000e+00 0.000000000000000e+00
-9.070747024728404e-04 0.000000000000000e+00 0.000000000000000e+00
-9.070747024725137e-04 -8.517989818089328e-16 3.936043444939145e-16
-9.070747024717077e-04 3.615863306054235e-16 -1.077055660546968e-15
-1.360466801260546e-03 0.000000000000000e+00 0.000000000000000e+00
-1.360466801260389e-03 0.000000000000000e+00 0.000000000000000e+00
-1.360466801260524e-03 -1.753684754519210e-16 -7.161238305535952e-17
-1.360466801260618e-03 5.549851444550154e-16 -2.039446772280215e-16
-9.070747024728404e-04 0.000000000000000e+00 0.000000000000000e+00
-9.070747024729855e-04 0.000000000000000e+00 0.000000000000000e+00
-9.070747024727610e-04 -5.122285212265228e-17 1.525577720731473e-16
-9.070747024725137e-04 -8.517989818089328e-16 3.936043444939145e-16
-1.360466801260389e-03 0.000000000000000e+00 0.000000000000000e+00
-1.360466801260901e-03 0.000000000000000e+00 0.000000000000000e+00
-1.360466801260829e-03 7.118117803271960e-16 2.094068962193142e-16
-1.360466801260524e-03 -1.753684754519210e-16 -7.161238305535952e-17
-9.070747024716158e-04 0.000000000000000e+00 0.000000000000000e+00
-9.070747024717077e-04 3.615863306054235e-16 -1.077055660546968e-15
-9.070747024720362e-04 -2.510414479976052e-16 5.385316267530211e-16
-9.070747024716053e-04 0.000000000000000e+00 0.000000000000000e+00
-1.360466801260840e-03 0.000000000000000e+00 0.000000000000000e+00
-1.360466801260618e-03 5.549851444550154e-16 -2.039446772280215e-16
-1.360466801261932e-03 2.689946501320449e-16 -4.134037275748009e-16
-1.360466801260687e-03 0.000000000000000e+00 0.000000000000000e+00
-9.070747024717077e-04 3.615863306054235e-16 -1.077055660546968e-15
-9.070747024725137e-04 -8.517989818089328e-16 3.936043444939145e-16
-9.070747024724188e-04 2.495111244316308e-16 6.954843784517399e-17
-9.070747024720362e-04 -2.510414479976052e-16 5.385316267530211e-16
-1.360466801260618e-03 5.549851444550154e-16 -2.039446772280215e-16
-1.360466801260524e-03 -1.753684754519210e-16 -7.161238305535952e-17
-1.360466801261220e-03 5.215148968647959e-16 -9.496397803734444e-17
-1.360466801261932e-03 2.689946501320449e-16 -4.134037275748009e-16
-9.070747024725137e-04 -8.517989818089328e-16 3.936043444939145e-16
-9.070747024727610e-04 -5.122285212265228e-17 1.525577720731473e-16
-9.070747024717430e-04 8.677548232725138e-16 8.488301227283881e-16
-9.070747024724188e-04 2.495111244316308e-16 6.954843784517399e-17
-1.360466801260524e-03 -1.753684754519210e-16 -7.161238305535952e-17
-1.360466801260829e-03 7.118117803271960e-16 2.094068962193142e-16
-1.360466801260584e-03 7.934016365456994e-16 -1.601358238054714e-17
-1.360466801261220e-03 5.215148968647959e-16 -9.496397803734444e-17
-9.070747024716053e-04 0.000000000000000e+00 0.000000000000000e+00
-9.070747024720362e-04 -2.510414479976052e-16 5.385316267530211e-16
-9.070747024719595e-04 -9.229754806924821e-17 2.573849800144117e-17
-9.070747024716527e-04 0.000000000000000e+00 0.000000000000000e+00
-1.360466801260687e-03 0.000000000000000e+00 0.000000000000000e+00
-1.360466801261932e-03 2.689946501320449e-16 -4.134037275748009e-16
-1.360466801261053e-03 6.123813083380924e-17 1.929027960871220e-16