<?xml version="1.0" ?> 
<!-- 
# vtk DataFile Version 3.0
-->
<VTKFile type="UnstructuredGrid" version="0.1" compressor="vtkZLibDataCompressor" byte_order="LittleEndian">
  <UnstructuredGrid>
    <FieldData>
      <DataArray type="Float64" Name="TIME" NumberOfTuples="1" format="ascii">
1.000000000000000e-01 
      </DataArray>
    </FieldData>

    <Piece NumberOfPoints="116" NumberOfCells="17" >
      <Points>
        <DataArray type="Float64" NumberOfComponents="3" format="ascii">
5.000000000000000e-01 -1.666666666670000e-01 -4.166666666670000e-01
5.000000000000000e-01 -3.333333333330000e-01 -2.500000000000000e-01
5.000000000000000e-01 -1.666666666670000e-01 -8.333333333329999e-02
5.000000000000000e-01 0.000000000000000e+00 -2.500000000000000e-01
-5.000000000000000e-01 -1.666666666670000e-01 -4.166666666670000e-01
-5.000000000000000e-01 -3.333333333330000e-01 -2.500000000000000e-01
-5.000000000000000e-01 -1.666666666670000e-01 -8.333333333329999e-02
-5.000000000000000e-01 0.000000000000000e+00 -2.500000000000000e-01
5.000000000000000e-01 1.666666666670000e-01 -4.166666666670000e-01
5.000000000000000e-01 0.000000000000000e+00 -2.500000000000000e-01
5.000000000000000e-01 1.666666666670000e-01 -8.333333333329999e-02
5.000000000000000e-01 3.333333333330000e-01 -2.500000000000000e-01
-5.000000000000000e-01 1.666666666670000e-01 -4.166666666670000e-01
-5.000000000000000e-01 0.000000000000000e+00 -2.500000000000000e-01
-5.000000000000000e-01 1.666666666670000e-01 -8.333333333329999e-02
-5.000000000000000e-01 3.333333333330000e-01 -2.500000000000000e-01
5.000000000000000e-01 -3.333333333330000e-01 -2.500000000000000e-01
5.000000000000000e-01 -5.000000000000000e-01 -8.333333333329999e-02
5.000000000000000e-01 -3.333333333330000e-01 8.333333333329999e-02
5.000000000000000e-01 -1.666666666670000e-01 -8.333333333329999e-02
-5.000000000000000e-01 -3.333333333330000e-01 -2.500000000000000e-01
-5.000000000000000e-01 -5.000000000000000e-01 -8.333333333329999e-02
-5.000000000000000e-01 -3.333333333330000e-01 8.333333333329999e-02
-5.000000000000000e-01 -1.666666666670000e-01 -8.333333333329999e-02
5.000000000000000e-01 0.000000000000000e+00 -2.500000000000000e-01
5.000000000000000e-01 -1.666666666670000e-01 -8.333333333329999e-02
5.000000000000000e-01 0.000000000000000e+00 8.333333333329999e-02
5.000000000000000e-01 1.666666666670000e-01 -8.333333333329999e-02
-5.000000000000000e-01 0.000000000000000e+00 -2.500000000000000e-01
-5.000000000000000e-01 -1.666666666670000e-01 -8.333333333329999e-02
-5.000000000000000e-01 0.000000000000000e+00 8.333333333329999e-02
-5.000000000000000e-01 1.666666666670000e-01 -8.333333333329999e-02
5.000000000000000e-01 3.333333333330000e-01 -2.500000000000000e-01
5.000000000000000e-01 1.666666666670000e-01 -8.333333333329999e-02
5.000000000000000e-01 3.333333333330000e-01 8.333333333329999e-02
5.000000000000000e-01 5.000000000000000e-01 -8.333333333329999e-02
-5.000000000000000e-01 3.333333333330000e-01 -2.500000000000000e-01
-5.000000000000000e-01 1.666666666670000e-01 -8.333333333329999e-02
-5.000000000000000e-01 3.333333333330000e-01 8.333333333329999e-02
-5.000000000000000e-01 5.000000000000000e-01 -8.333333333329999e-02
5.000000000000000e-01 -1.666666666670000e-01 -8.333333333329999e-02
5.000000000000000e-01 -3.333333333330000e-01 8.333333333329999e-02
5.000000000000000e-01 -1.666666666670000e-01 2.500000000000000e-01
5.000000000000000e-01 0.000000000000000e+00 8.333333333329999e-02
-5.000000000000000e-01 -1.666666666670000e-01 -8.333333333329999e-02
-5.000000000000000e-01 -3.333333333330000e-01 8.333333333329999e-02
-5.000000000000000e-01 -1.666666666670000e-01 2.500000000000000e-01
-5.000000000000000e-01 0.000000000000000e+00 8.333333333329999e-02
5.000000000000000e-01 1.666666666670000e-01 -8.333333333329999e-02
5.000000000000000e-01 0.000000000000000e+00 8.333333333329999e-02
5.000000000000000e-01 1.666666666670000e-01 2.500000000000000e-01
5.000000000000000e-01 3.333333333330000e-01 8.333333333329999e-02
-5.000000000000000e-01 1.666666666670000e-01 -8.333333333329999e-02
-5.000000000000000e-01 0.000000000000000e+00 8.333333333329999e-02
-5.000000000000000e-01 1.666666666670000e-01 2.500000000000000e-01
-5.000000000000000e-01 3.333333333330000e-01 8.333333333329999e-02
5.000000000000000e-01 5.000000000000000e-01 -4.166666666670000e-01
5.000000000000000e-01 5.000000000000000e-01 -8.333333333329999e-02
5.000000000000000e-01 3.333333333330000e-01 -2.500000000000000e-01
-5.000000000000000e-01 5.000000000000000e-01 -4.166666666670000e-01
-5.000000000000000e-01 5.000000000000000e-01 -8.333333333329999e-02
-5.000000000000000e-01 3.333333333330000e-01 -2.500000000000000e-01
5.000000000000000e-01 5.000000000000000e-01 -8.333333333329999e-02
5.000000000000000e-01 5.000000000000000e-01 2.500000000000000e-01
5.000000000000000e-01 3.333333333330000e-01 8.333333333329999e-02
-5.000000000000000e-01 5.000000000000000e-01 -8.333333333329999e-02
-5.000000000000000e-01 5.000000000000000e-01 2.500000000000000e-01
-5.000000000000000e-01 3.333333333330000e-01 8.333333333329999e-02
5.000000000000000e-01 -5.000000000000000e-01 -4.166666666670000e-01
5.000000000000000e-01 -3.333333333330000e-01 -2.500000000000000e-01
5.000000000000000e-01 -5.000000000000000e-01 -8.333333333329999e-02
-5.000000000000000e-01 -5.000000000000000e-01 -4.166666666670000e-01
-5.000000000000000e-01 -3.333333333330000e-01 -2.500000000000000e-01
-5.000000000000000e-01 -5.000000000000000e-01 -8.333333333329999e-02
5.000000000000000e-01 -5.000000000000000e-01 -8.333333333329999e-02
5.000000000000000e-01 -3.333333333330000e-01 8.333333333329999e-02
5.000000000000000e-01 -5.000000000000000e-01 2.500000000000000e-01
-5.000000000000000e-01 -5.000000000000000e-01 -8.333333333329999e-02
-5.000000000000000e-01 -3.333333333330000e-01 8.333333333329999e-02
-5.000000000000000e-01 -5.000000000000000e-01 2.500000000000000e-01
5.000000000000000e-01 -3.333333333330000e-01 8.333333333329999e-02
5.000000000000000e-01 -1.666666666670000e-01 2.500000000000000e-01
5.000000000000000e-01 -5.000000000000000e-01 2.500000000000000e-01
-5.000000000000000e-01 -3.333333333330000e-01 8.333333333329999e-02
-5.000000000000000e-01 -1.666666666670000e-01 2.500000000000000e-01
-5.000000000000000e-01 -5.000000000000000e-01 2.500000000000000e-01
5.000000000000000e-01 0.000000000000000e+00 8.333333333329999e-02
5.000000000000000e-01 1.666666666670000e-01 2.500000000000000e-01
5.000000000000000e-01 -1.666666666670000e-01 2.500000000000000e-01
-5.000000000000000e-01 0.000000000000000e+00 8.333333333329999e-02
-5.000000000000000e-01 1.666666666670000e-01 2.500000000000000e-01
-5.000000000000000e-01 -1.666666666670000e-01 2.500000000000000e-01
5.000000000000000e-01 3.333333333330000e-01 8.333333333329999e-02
5.000000000000000e-01 5.000000000000000e-01 2.500000000000000e-01
5.000000000000000e-01 1.666666666670000e-01 2.500000000000000e-01
-5.000000000000000e-01 3.333333333330000e-01 8.333333333329999e-02
-5.000000000000000e-01 5.000000000000000e-01 2.500000000000000e-01
-5.000000000000000e-01 1.666666666670000e-01 2.500000000000000e-01
5.000000000000000e-01 1.666666666670000e-01 -4.166666666670000e-01
5.000000000000000e-01 5.000000000000000e-01 -4.166666666670000e-01
5.000000000000000e-01 3.333333333330000e-01 -2.500000000000000e-01
-5.000000000000000e-01 1.666666666670000e-01 -4.166666666670000e-01
-5.000000000000000e-01 5.000000000000000e-01 -4.166666666670000e-01
-5.000000000000000e-01 3.333333333330000e-01 -2.500000000000000e-01
5.000000000000000e-01 -1.666666666670000e-01 -4.166666666670000e-01
5.000000000000000e-01 1.666666666670000e-01 -4.166666666670000e-01
5.000000000000000e-01 0.000000000000000e+00 -2.500000000000000e-01
-5.000000000000000e-01 -1.666666666670000e-01 -4.166666666670000e-01
-5.000000000000000e-01 1.666666666670000e-01 -4.166666666670000e-01
-5.000000000000000e-01 0.000000000000000e+00 -2.500000000000000e-01
5.000000000000000e-01 -5.000000000000000e-01 -4.166666666670000e-01
5.000000000000000e-01 -1.666666666670000e-01 -4.166666666670000e-01
5.000000000000000e-01 -3.333333333330000e-01 -2.500000000000000e-01
-5.000000000000000e-01 -5.000000000000000e-01 -4.166666666670000e-01
-5.000000000000000e-01 -1.666666666670000e-01 -4.166666666670000e-01
-5.000000000000000e-01 -3.333333333330000e-01 -2.500000000000000e-01
        </DataArray>
      </Points>

      <Cells>
        <DataArray type="Int32" Name="connectivity" format="ascii">
0 1 2 3 4 5 6 7 8 9 10 11 12 13 14 15 16 17 18 19 20 21 22 23 24 25 26 27 28 29 30 31 32 33 34 35 36 37 38 39 40 41 42 43 44 45 46 47 48 49 50 51 52 53 54 55 56 57 58 59 60 61 62 63 64 65 66 67 68 69 70 71 72 73 74 75 76 77 78 79 80 81 82 83 84 85 86 87 88 89 90 91 92 93 94 95 96 97 98 99 100 101 102 103 104 105 106 107 108 109 110 111 112 113 114 115 
        </DataArray>
        <DataArray type="Int32" Name="offsets" format="ascii">
8 16 24 32 40 48 56 62 68 74 80 86 92 98 104 110 116 
        </DataArray>
        <DataArray type="UInt8" Name="types" format="ascii">
12 12 12 12 12 12 12 13 13 13 13 13 13 13 13 13 13 
        </DataArray>
      </Cells>

  <PointData>
        <DataArray type="Float64" Name="displacement" NumberOfComponents="3" format="ascii">
-1.027834913191670e-05 -3.750864957792958e-07 -5.925984755213886e-03
-7.920931109611027e-06 -2.263407343669344e-07 -7.638063829077496e-03
-2.581139295707032e-06 1.360193891038757e-07 -9.318030239605254e-03
-1.043691955488310e-05 8.110460578378634e-09 -7.633417806586291e-03
1.026167526773704e-05 -3.595973789094650e-07 -5.925751577538689e-03
7.937097989678402e-06 -2.228459426056565e-07 -7.638142871370485e-03
2.603946901594148e-06 1.194507674236846e-07 -9.317946536216787e-03
1.044073516732043e-05 6.162539707014610e-10 -7.633318001428805e-03
-9.970695760451805e-06 3.681422408125886e-07 -5.925758168019325e-03
-1.043691955488310e-05 8.110460578378634e-09 -7.633417806586291e-03
-2.552467804642965e-06 -1.027223714812101e-07 -9.318006127809308e-03
-7.892284678267291e-06 2.335971748104804e-07 -7.638175596240452e-03
9.965830861482175e-06 3.532202056528260e-07 -5.925887747469385e-03
1.044073516732043e-05 6.162539707014610e-10 -7.633318001428805e-03
2.570919677817144e-06 -1.062761781751799e-07 -9.317973393262730e-03
7.895086522706966e-06 2.196259027489840e-07 -7.638117635161631e-03
-7.920931109611027e-06 -2.263407343669344e-07 -7.638063829077496e-03
-2.889529574574219e-06 2.865508794650996e-06 -9.316874483361225e-03
-1.645714910598797e-06 1.499622657257196e-06 -1.101341213869912e-02
-2.581139295707032e-06 1.360193891038757e-07 -9.318030239605254e-03
7.937097989678402e-06 -2.228459426056565e-07 -7.638142871370485e-03
2.913648909767170e-06 2.889191587149814e-06 -9.316861762365692e-03
1.683106738668801e-06 1.492469132848227e-06 -1.101338969564312e-02
2.603946901594148e-06 1.194507674236846e-07 -9.317946536216787e-03
-1.043691955488310e-05 8.110460578378634e-09 -7.633417806586291e-03
-2.581139295707032e-06 1.360193891038757e-07 -9.318030239605254e-03
-1.742724182722062e-06 1.816065106132829e-08 -1.101310266577638e-02
-2.552467804642965e-06 -1.027223714812101e-07 -9.318006127809308e-03
1.044073516732043e-05 6.162539707014610e-10 -7.633318001428805e-03
2.603946901594148e-06 1.194507674236846e-07 -9.317946536216787e-03
1.778179688239868e-06 1.560882394362717e-08 -1.101304480771828e-02
2.570919677817144e-06 -1.062761781751799e-07 -9.317973393262730e-03
-7.892284678267291e-06 2.335971748104804e-07 -7.638175596240452e-03
-2.552467804642965e-06 -1.027223714812101e-07 -9.318006127809308e-03
-1.640882755845013e-06 -1.458815217432185e-06 -1.101345111702659e-02
-2.882950622034469e-06 -2.857409216261755e-06 -9.316927008318668e-03
7.895086522706966e-06 2.196259027489840e-07 -7.638117635161631e-03
2.570919677817144e-06 -1.062761781751799e-07 -9.317973393262730e-03
1.672538240219269e-06 -1.461948017897537e-06 -1.101340565272630e-02
2.897596000141258e-06 -2.857858786105667e-06 -9.316890634789646e-03
-2.581139295707032e-06 1.360193891038757e-07 -9.318030239605254e-03
-1.645714910598797e-06 1.499622657257196e-06 -1.101341213869912e-02
-1.181882158802533e-06 5.097626252515688e-07 -1.270483130591433e-02
-1.742724182722062e-06 1.816065106132829e-08 -1.101310266577638e-02
2.603946901594148e-06 1.194507674236846e-07 -9.317946536216787e-03
1.683106738668801e-06 1.492469132848227e-06 -1.101338969564312e-02
1.233330847806445e-06 4.914297530716942e-07 -1.270477633173816e-02
1.778179688239868e-06 1.560882394362717e-08 -1.101304480771828e-02
-2.552467804642965e-06 -1.027223714812101e-07 -9.318006127809308e-03
-1.742724182722062e-06 1.816065106132829e-08 -1.101310266577638e-02
-1.176343300870587e-06 -4.513201534295129e-07 -1.270483815147366e-02
-1.640882755845013e-06 -1.458815217432185e-06 -1.101345111702659e-02
2.570919677817144e-06 -1.062761781751799e-07 -9.317973393262730e-03
1.778179688239868e-06 1.560882394362717e-08 -1.101304480771828e-02
1.225955856311068e-06 -4.521153764187404e-07 -1.270478969457547e-02
1.672538240219269e-06 -1.461948017897537e-06 -1.101340565272630e-02
-2.268936497814290e-05 4.237686250881364e-06 -5.931962780229791e-03
-2.882950622034469e-06 -2.857409216261755e-06 -9.316927008318668e-03
-7.892284678267291e-06 2.335971748104804e-07 -7.638175596240452e-03
2.267819335321127e-05 4.206324794861603e-06 -5.931959847882901e-03
2.897596000141258e-06 -2.857858786105667e-06 -9.316890634789646e-03
7.895086522706966e-06 2.196259027489840e-07 -7.638117635161631e-03
-2.882950622034469e-06 -2.857409216261755e-06 -9.316927008318668e-03
-9.836036710003463e-07 -1.637136888263280e-06 -1.270562916599876e-02
-1.640882755845013e-06 -1.458815217432185e-06 -1.101345111702659e-02
2.897596000141258e-06 -2.857858786105667e-06 -9.316890634789646e-03
1.029494325924981e-06 -1.638170912312865e-06 -1.270558569049335e-02
1.672538240219269e-06 -1.461948017897537e-06 -1.101340565272630e-02
-2.261603746549988e-05 -4.183384280471394e-06 -5.931974976713776e-03
-7.920931109611027e-06 -2.263407343669344e-07 -7.638063829077496e-03
-2.889529574574219e-06 2.865508794650996e-06 -9.316874483361225e-03
2.263289911226348e-05 -4.257381900171088e-06 -5.931861008088201e-03
7.937097989678402e-06 -2.228459426056565e-07 -7.638142871370485e-03
2.913648909767170e-06 2.889191587149814e-06 -9.316861762365692e-03
-2.889529574574219e-06 2.865508794650996e-06 -9.316874483361225e-03
-1.645714910598797e-06 1.499622657257196e-06 -1.101341213869912e-02
-9.874875702406593e-07 1.700532901669369e-06 -1.270556760675032e-02
2.913648909767170e-06 2.889191587149814e-06 -9.316861762365692e-03
1.683106738668801e-06 1.492469132848227e-06 -1.101338969564312e-02
1.035106194523475e-06 1.676275303274117e-06 -1.270556213798107e-02
-1.645714910598797e-06 1.499622657257196e-06 -1.101341213869912e-02
-1.181882158802533e-06 5.097626252515688e-07 -1.270483130591433e-02
-9.874875702406593e-07 1.700532901669369e-06 -1.270556760675032e-02
1.683106738668801e-06 1.492469132848227e-06 -1.101338969564312e-02
1.233330847806445e-06 4.914297530716942e-07 -1.270477633173816e-02
1.035106194523475e-06 1.676275303274117e-06 -1.270556213798107e-02
-1.742724182722062e-06 1.816065106132829e-08 -1.101310266577638e-02
-1.176343300870587e-06 -4.513201534295129e-07 -1.270483815147366e-02
-1.181882158802533e-06 5.097626252515688e-07 -1.270483130591433e-02
1.778179688239868e-06 1.560882394362717e-08 -1.101304480771828e-02
1.225955856311068e-06 -4.521153764187404e-07 -1.270478969457547e-02
1.233330847806445e-06 4.914297530716942e-07 -1.270477633173816e-02
-1.640882755845013e-06 -1.458815217432185e-06 -1.101345111702659e-02
-9.836036710003463e-07 -1.637136888263280e-06 -1.270562916599876e-02
-1.176343300870587e-06 -4.513201534295129e-07 -1.270483815147366e-02
1.672538240219269e-06 -1.461948017897537e-06 -1.101340565272630e-02
1.029494325924981e-06 -1.638170912312865e-06 -1.270558569049335e-02
1.225955856311068e-06 -4.521153764187404e-07 -1.270478969457547e-02
-9.970695760451805e-06 3.681422408125886e-07 -5.925758168019325e-03
-2.268936497814290e-05 4.237686250881364e-06 -5.931962780229791e-03
-7.892284678267291e-06 2.335971748104804e-07 -7.638175596240452e-03
9.965830861482175e-06 3.532202056528260e-07 -5.925887747469385e-03
2.267819335321127e-05 4.206324794861603e-06 -5.931959847882901e-03
7.895086522706966e-06 2.196259027489840e-07 -7.638117635161631e-03
-1.027834913191670e-05 -3.750864957792958e-07 -5.925984755213886e-03
-9.970695760451805e-06 3.681422408125886e-07 -5.925758168019325e-03
-1.043691955488310e-05 8.110460578378634e-09 -7.633417806586291e-03
1.026167526773704e-05 -3.595973789094650e-07 -5.925751577538689e-03
9.965830861482175e-06 3.532202056528260e-07 -5.925887747469385e-03
1.044073516732043e-05 6.162539707014610e-10 -7.633318001428805e-03
-2.261603746549988e-05 -4.183384280471394e-06 -5.931974976713776e-03
-1.027834913191670e-05 -3.750864957792958e-07 -5.925984755213886e-03
-7.920931109611027e-06 -2.263407343669344e-07 -7.638063829077496e-03
2.263289911226348e-05 -4.257381900171088e-06 -5.931861008088201e-03
1.026167526773704e-05 -3.595973789094650e-07 -5.925751577538689e-03
7.937097989678402e-06 -2.228459426056565e-07 -7.638142871370485e-03
        </DataArray>
      </PointData>

    </Piece>
  </UnstructuredGrid>
</VTKFile>
