<?xml version="1.0" ?> 
<!-- 
# vtk DataFile Version 3.0
-->
<VTKFile type="UnstructuredGrid" version="0.1" compressor="vtkZLibDataCompressor" byte_order="LittleEndian">
  <UnstructuredGrid>
    <FieldData>
      <DataArray type="Float64" Name="TIME" NumberOfTuples="1" format="ascii">
2.299999999999995e+00 
      </DataArray>
    </FieldData>

    <Piece NumberOfPoints="10" NumberOfCells="0" >
      <Points>
        <DataArray type="Float64" NumberOfComponents="3" format="ascii">
1.465494392505207e-14 0.000000000000000e+00 7.853500000000000e-01
1.487698852997710e-14 -2.567390744445674e-16 8.079617956077725e-01
-2.307471392214383e-02 0.000000000000000e+00 7.851641246031023e-01
-1.862458121030562e-02 -9.490247893563564e-03 8.078031666401055e-01
-4.690992409997152e-03 0.000000000000000e+00 7.853423190838841e-01
-3.786217144861243e-03 -1.929285902048168e-03 8.079552403387462e-01
4.690992409997208e-03 0.000000000000000e+00 7.853423190838841e-01
3.786217144867390e-03 1.929285902035602e-03 8.079552403387462e-01
2.307471392214383e-02 0.000000000000000e+00 7.851641246031023e-01
1.862458121031171e-02 9.490247893551004e-03 8.078031666401058e-01
        </DataArray>
      </Points>

      <Cells>
        <DataArray type="Int32" Name="connectivity" format="ascii">

        </DataArray>
        <DataArray type="Int32" Name="offsets" format="ascii">

        </DataArray>
        <DataArray type="UInt8" Name="types" format="ascii">

        </DataArray>
      </Cells>

  <PointData>
        <DataArray type="Float64" Name="angles" format="ascii">
4.712623641834625e-01
4.712623641834625e-01
4.712044167629857e-01
4.712044167629857e-01
4.712599697774804e-01
4.712599697774804e-01
4.712599697774804e-01
4.712599697774804e-01
4.712044167629872e-01
4.712044167629872e-01
        </DataArray>
        <DataArray type="Float64" Name="force" NumberOfComponents="3" format="ascii">
-1.133289499684853e-14 1.310365984010612e-14 -1.154079403999058e+00
1.133289499684853e-14 -1.310365984010612e-14 1.154079403999058e+00
-6.377475215352603e-04 1.360045298598598e-03 -3.244396040285176e-03
6.377475215352603e-04 -1.360045298598598e-03 3.244396040285176e-03
-2.487638162296921e-01 5.304483246671792e-01 -6.217319155620405e+00
2.487638162296921e-01 -5.304483246671792e-01 6.217319155620405e+00
2.487638162283015e-01 -5.304483246643308e-01 -6.217319155627517e+00
-2.487638162283015e-01 5.304483246643308e-01 6.217319155627517e+00
6.377475216733557e-04 -1.360045298893159e-03 -3.244396040992178e-03
-6.377475216733557e-04 1.360045298893159e-03 3.244396040992178e-03
        </DataArray>
        <DataArray type="Float64" Name="gap" format="ascii">
2.611795607772489e-03
2.611795607772489e-03
4.947839798015823e-03
4.947839798015823e-03
2.713101286500694e-03
2.713101286500694e-03
2.713101286499386e-03
2.713101286499386e-03
4.947839798010157e-03
4.947839798010157e-03
        </DataArray>
        <DataArray type="Int32" Name="types" format="ascii">
0
0
1
1
1
1
1
1
1
1
        </DataArray>
      </PointData>

    </Piece>
  </UnstructuredGrid>
</VTKFile>
