<?xml version="1.0" ?> 
<!-- 
# vtk DataFile Version 3.0
-->
<VTKFile type="UnstructuredGrid" version="0.1" compressor="vtkZLibDataCompressor" byte_order="LittleEndian">
  <UnstructuredGrid>
    <FieldData>
      <DataArray type="Float64" Name="TIME" NumberOfTuples="1" format="ascii">
4.999999999999999e-01 
      </DataArray>
    </FieldData>

    <Piece NumberOfPoints="448" NumberOfCells="0" >
      <Points>
        <DataArray type="Float64" NumberOfComponents="3" format="ascii">
-3.897240974572857e-02 5.187987402133843e-03 -1.622579333908203e-01
2.329751045223202e-02 4.364682188731794e-02 -9.421482598467874e-02
-3.856543418129135e-02 6.126372802480583e-03 -1.621002458586570e-01
2.303533472446216e-02 4.425160860440626e-02 -9.431672898376116e-02
-3.819340520045447e-02 6.984201215482081e-03 -1.619560730740505e-01
2.279566698527994e-02 4.480447681087227e-02 -9.440988686643834e-02
-3.785775943316753e-02 7.758154091105269e-03 -1.618259789991374e-01
2.257943408339899e-02 4.530328764339957e-02 -9.449393845094882e-02
-3.755979293754411e-02 8.445237390491866e-03 -1.617104726553065e-01
2.238747221981882e-02 4.574611138927191e-02 -9.456855783996856e-02
-3.730065620626576e-02 9.042793188715622e-03 -1.616100060819808e-01
2.222052371170406e-02 4.613123496537002e-02 -9.463345569445700e-02
-3.708134971695469e-02 9.548510013939785e-03 -1.615249725175391e-01
2.207923410882636e-02 4.645716858268201e-02 -9.468838036909197e-02
-3.690272000741963e-02 9.960431966408572e-03 -1.614557047956355e-01
2.196414965036019e-02 4.672265162430855e-02 -9.473311891382911e-02
-3.676545612785640e-02 1.027696695790330e-02 -1.614024739000639e-01
2.187571496679884e-02 4.692665795649096e-02 -9.476749797842143e-02
-3.667008542165512e-02 1.049689648885120e-02 -1.613654872719737e-01
2.181427035161378e-02 4.706840223052836e-02 -9.479138488229841e-02
-3.661695481591421e-02 1.061941883009614e-02 -1.613448815102063e-01
2.178003969951508e-02 4.714736771382386e-02 -9.480469231085017e-02
-3.659203836606375e-02 1.067687777753981e-02 -1.613352179506278e-01
2.176398665745220e-02 4.718439992929100e-02 -9.481093307625568e-02
-3.653890793919985e-02 1.079940010951957e-02 -1.613146117769038e-01
2.172975604110244e-02 4.726336541224300e-02 -9.482424058547828e-02
-3.644353816545163e-02 1.101932959225990e-02 -1.612776230011419e-01
2.166831161216507e-02 4.740510968453409e-02 -9.484812790969037e-02
-3.630627700796586e-02 1.133586444343210e-02 -1.612243858349664e-01
2.157987747183454e-02 4.760911601181803e-02 -9.488250820050353e-02
-3.612765328355749e-02 1.174778608858404e-02 -1.611551043227453e-01
2.146479420637275e-02 4.787459904326886e-02 -9.492724943884874e-02
-3.590835792830013e-02 1.225350234495126e-02 -1.610700450975246e-01
2.132350681951523e-02 4.820053264304149e-02 -9.498217911846199e-02
-3.564923974617825e-02 1.285105720114229e-02 -1.609695357601066e-01
2.115656199664194e-02 4.858565619269764e-02 -9.504708529936823e-02
-3.535130182224354e-02 1.353813905963799e-02 -1.608539635213795e-01
2.096460579769993e-02 4.902847990281013e-02 -9.512171749267022e-02
-3.501569755235875e-02 1.431208985921125e-02 -1.607237737008528e-01
2.074838110365556e-02 4.952729069158253e-02 -9.520578763936005e-02
-3.464372614212452e-02 1.516991541780632e-02 -1.605794680235176e-01
2.050872472142121e-02 5.008015884997961e-02 -9.529897122035549e-02
-3.423682755649378e-02 1.610829703921282e-02 -1.604216027070711e-01
2.024656413524549e-02 5.068494552131688e-02 -9.540090850270773e-02
-3.379657692969996e-02 1.712360436206799e-02 -1.602507863423933e-01
1.996291391066827e-02 5.133931098149339e-02 -9.551120591990699e-02
-3.332467845400205e-02 1.821190940928876e-02 -1.600676775735624e-01
1.965887176285477e-02 5.204072369288683e-02 -9.562943758200765e-02
-3.282295876987880e-02 1.936900178653444e-02 -1.598729825852743e-01
1.933561430378306e-02 5.278647009880304e-02 -9.575514691027073e-02
-3.229335988297740e-02 2.059040497214294e-02 -1.596674524065567e-01
1.899439248448040e-02 5.357366512140538e-02 -9.588784839035809e-02
-3.173793163524274e-02 2.187139363608538e-02 -1.594518800405036e-01
1.863652674987248e-02 5.439926332289115e-02 -9.602702943757714e-02
-3.115882375949480e-02 2.320701192121425e-02 -1.592270974304950e-01
1.826340192500030e-02 5.526007068692853e-02 -9.617215236720682e-02
-3.055827754837576e-02 2.459209261622843e-02 -1.589939722740511e-01
1.787646185243218e-02 5.615275697488254e-02 -9.632265646250410e-02
-2.993861717009367e-02 2.602127714626004e-02 -1.587534046961103e-01
1.747720380167424e-02 5.707386860909111e-02 -9.647796013259392e-02
-2.930224066474632e-02 2.748903630379429e-02 -1.585063237941193e-01
1.706717267226859e-02 5.801984203338871e-02 -9.663746315207666e-02
-2.865161065623011e-02 2.898969163974992e-02 -1.582536840678772e-01
1.664795501306434e-02 5.898701749921574e-02 -9.680054897385262e-02
-2.798924481581509e-02 3.051743743198282e-02 -1.579964617475862e-01
1.622117288085269e-02 5.997165322399537e-02 -9.696658710635493e-02
-2.731770611440197e-02 3.206636314623557e-02 -1.577356510340253e-01
1.578847756217175e-02 6.096993986701332e-02 -9.713493554611177e-02
-2.663959290126536e-02 3.363047630264474e-02 -1.574722602651704e-01
1.535154318260773e-02 6.197801526680154e-02 -9.730494325631767e-02
-2.595752884772760e-02 3.520372565934803e-02 -1.572073080239469e-01
1.491206022834500e-02 6.299197938301251e-02 -9.747595268189151e-02
-2.527415279470064e-02 3.678002462349976e-02 -1.569418192020988e-01
1.447172900504748e-02 6.400790938497393e-02 -9.764730229132992e-02
-2.459210854337271e-02 3.835327479912755e-02 -1.566768210353994e-01
1.403225305938595e-02 6.502187482854550e-02 -9.781832913553647e-02
-2.391403462850844e-02 3.991738958072523e-02 -1.564133391256119e-01
1.359533258866058e-02 6.602995286255364e-02 -9.798837141371392e-02
-2.324255411386898e-02 4.146631770130443e-02 -1.561523934647240e-01
1.316265786400441e-02 6.702824340596326e-02 -9.815677103635662e-02
-2.258026444914661e-02 4.299406664379937e-02 -1.558949944770315e-01
1.273590269259026e-02 6.801288423705991e-02 -9.832287617536589e-02
-2.192972742754651e-02 4.449472582524875e-02 -1.556421390946361e-01
1.231671794410512e-02 6.898006593625178e-02 -9.848604379134128e-02
-2.129345928273740e-02 4.596248946405613e-02 -1.553948068818392e-01
1.190672516649796e-02 6.992604662466873e-02 -9.864564212816689e-02
-2.067392096333424e-02 4.739167904185868e-02 -1.551539562237685e-01
1.150751031565333e-02 7.084716644152619e-02 -9.880105316512333e-02
-2.007350862237364e-02 4.877676527310180e-02 -1.549205205943613e-01
1.112061762319614e-02 7.173986170423206e-02 -9.895167501690255e-02
-1.949454435839707e-02 5.011238949732617e-02 -1.546954049185465e-01
1.074754362609107e-02 7.260067869644560e-02 -9.909692427209420e-02
-1.893926724377266e-02 5.139338441141048e-02 -1.544794820431258e-01
1.038973138106794e-02 7.342628703074100e-02 -9.923623826093854e-02
-1.840982467476419e-02 5.261479406157895e-02 -1.542735893304422e-01
1.004856488618337e-02 7.421349253417946e-02 -9.936907724341000e-02
-1.790826407660303e-02 5.377189301785845e-02 -1.540785253884557e-01
9.725363731019555e-03 7.495924960695335e-02 -9.949492650899892e-02
-1.743652499542777e-02 5.486020465687365e-02 -1.538950469503097e-01
9.421377996125645e-03 7.566067300632655e-02 -9.961329837990292e-02
-1.699643160743863e-02 5.587551848237318e-02 -1.537238659158785e-01
9.137783421325528e-03 7.631504901035847e-02 -9.972373410971956e-02
-1.658968567394498e-02 5.681390641674137e-02 -1.535656465671226e-01
8.875676861437658e-03 7.691984591838918e-02 -9.982580567015326e-02
-1.621785996914281e-02 5.767173800101570e-02 -1.534210029683432e-01
8.636072046763053e-03 7.747272384801142e-02 -9.991911741871813e-02
-1.588239220534792e-02 5.844569444582739e-02 -1.532904965615755e-01
8.419895664331706e-03 7.797154379141559e-02 -1.000033076409593e-01
-1.558457947775232e-02 5.913278148184444e-02 -1.531746339662904e-01
8.227983774181859e-03 7.841437589796299e-02 -1.000780499613957e-01
-1.532557324667126e-02 5.973034096779460e-02 -1.530738649909382e-01
8.061078572296676e-03 7.879950695596939e-02 -1.001430546184327e-01
-1.510637486640616e-02 6.023606123458338e-02 -1.529885808603796e-01
7.919825506123466e-03 7.912544705984892e-02 -1.001980696007330e-01
-1.492783164178332e-02 6.064798620882113e-02 -1.529191126522790e-01
7.804770730505893e-03 7.939093549053726e-02 -1.002428816495976e-01
-1.479063326462578e-02 6.096452365628717e-02 -1.528657298853605e-01
7.716358808855689e-03 7.959494602866556e-02 -1.002773171642655e-01
-1.469530758237870e-02 6.118445496244093e-02 -1.528286388521636e-01
7.654929984389694e-03 7.973669325833160e-02 -1.003012432729672e-01
-1.464220188649600e-02 6.130697831717563e-02 -1.528079753221094e-01
7.620708120602034e-03 7.981566040009361e-02 -1.003145725364632e-01
-1.461729707913086e-02 6.136443774547333e-02 -1.527982847612770e-01
7.604659197949953e-03 7.985269339598344e-02 -1.003208235402159e-01
-1.456419146452317e-02 6.148696110357823e-02 -1.527776210427647e-01
7.570437364033615e-03 7.993166054243321e-02 -1.003341528768215e-01
-1.446886620575213e-02 6.170689242729181e-02 -1.527405290276253e-01
7.509008695209454e-03 8.007340779652437e-02 -1.003580793664542e-01
-1.433166906394484e-02 6.202342992598272e-02 -1.526871433962165e-01
7.420597227592408e-03 8.027741840590480e-02 -1.003925159923613e-01
-1.415312855288433e-02 6.243535501274081e-02 -1.526176688959950e-01
7.305543449301115e-03 8.054290699310515e-02 -1.004373304821665e-01
-1.393393521444057e-02 6.294107548859318e-02 -1.525323730746237e-01
7.164292236168263e-03 8.086884738778560e-02 -1.004923499997548e-01
-1.367493737060244e-02 6.353863532232785e-02 -1.524315846512030e-01
6.997390116878896e-03 8.125397892955036e-02 -1.005573622013995e-01
-1.337713753998735e-02 6.422572289312974e-02 -1.523156921508154e-01
6.805482966804884e-03 8.169681177997096e-02 -1.006321161231047e-01
-1.304168847137295e-02 6.499968011315384e-02 -1.521851423942659e-01
6.589313455481241e-03 8.219563280168288e-02 -1.007163231622918e-01
[...]
  <PointData>
        <DataArray type="Float64" Name="force" NumberOfComponents="3" format="ascii">
1.731578988566530e-05 1.069434485464925e-05 1.892114133631396e-05
-1.731578988566530e-05 -1.069434485464925e-05 -1.892114133631396e-05
1.778478159054055e-05 1.100700302693708e-05 1.956976902530139e-05
-1.778478159054055e-05 -1.100700302693708e-05 -1.956976902530139e-05
1.822860548930007e-05 1.130369218757664e-05 2.018837934365870e-05
-1.822860548930007e-05 -1.130369218757664e-05 -2.018837934365870e-05
1.864192472396182e-05 1.158068879513853e-05 2.076861074102884e-05
-1.864192472396182e-05 -1.158068879513853e-05 -2.076861074102884e-05
1.901948955658740e-05 1.183430674558833e-05 2.130209998086637e-05
-1.901948955658740e-05 -1.183430674558833e-05 -2.130209998086637e-05
1.935626807748570e-05 1.206099294901070e-05 2.178071285942169e-05
-1.935626807748570e-05 -1.206099294901070e-05 -2.178071285942169e-05
1.964758124568387e-05 1.225742722414835e-05 2.219678937823292e-05
-1.964758124568387e-05 -1.225742722414835e-05 -2.219678937823292e-05
1.988923657260333e-05 1.242062213855983e-05 2.254339207197356e-05
-1.988923657260333e-05 -1.242062213855983e-05 -2.254339207197356e-05
2.007765446495551e-05 1.254801809099628e-05 2.281454498899951e-05
-2.007765446495551e-05 -1.254801809099628e-05 -2.281454498899951e-05
2.020998243783735e-05 1.263756966566657e-05 2.300545209836779e-05
-2.020998243783735e-05 -1.263756966566657e-05 -2.300545209836779e-05
2.028421070544678e-05 1.268783167541868e-05 2.311271032518149e-05
-2.028421070544678e-05 -1.268783167541868e-05 -2.311271032518149e-05
2.031914754830219e-05 1.271149552411497e-05 2.316323561970188e-05
-2.031914754830219e-05 -1.271149552411497e-05 -2.316323561970188e-05
2.039391538304464e-05 1.276215355591326e-05 2.327145507461667e-05
-2.039391538304464e-05 -1.276215355591326e-05 -2.327145507461667e-05
2.052905420104050e-05 1.285376830276905e-05 2.346737013343234e-05
-2.052905420104050e-05 -1.285376830276905e-05 -2.346737013343234e-05
2.072567220025465e-05 1.298718338091658e-05 2.375313388810547e-05
-2.072567220025465e-05 -1.298718338091658e-05 -2.375313388810547e-05
2.098534405754542e-05 1.316360372189536e-05 2.413184248535115e-05
-2.098534405754542e-05 -1.316360372189536e-05 -2.413184248535115e-05
2.131014876962636e-05 1.338462571732879e-05 2.460761656859398e-05
-2.131014876962636e-05 -1.338462571732879e-05 -2.460761656859398e-05
2.170269063409960e-05 1.365225753132209e-05 2.518566773273536e-05
-2.170269063409960e-05 -1.365225753132209e-05 -2.518566773273536e-05
2.216612260598487e-05 1.396894276961878e-05 2.587237875901223e-05
-2.216612260598487e-05 -1.396894276961878e-05 -2.587237875901223e-05
2.270417328477774e-05 1.433758855598968e-05 2.667540063111596e-05
-2.270417328477774e-05 -1.433758855598968e-05 -2.667540063111596e-05
2.332117741327941e-05 1.476159817571392e-05 2.760376758312801e-05
-2.332117741327941e-05 -1.476159817571392e-05 -2.760376758312801e-05
2.402210943478220e-05 1.524490825809982e-05 2.866803117529562e-05
-2.402210943478220e-05 -1.524490825809982e-05 -2.866803117529562e-05
2.481261940847076e-05 1.579203033845462e-05 2.988041424743448e-05
-2.481261940847076e-05 -1.579203033845462e-05 -2.988041424743448e-05
2.569907029724351e-05 1.640809647556417e-05 3.125498535908603e-05
-2.569907029724351e-05 -1.640809647556417e-05 -3.125498535908603e-05
2.668857528305960e-05 1.709890837536933e-05 3.280785391193749e-05
-2.668857528305960e-05 -1.709890837536933e-05 -3.280785391193749e-05
2.778903331226095e-05 1.787098916458605e-05 3.455738549336964e-05
-2.778903331226095e-05 -1.787098916458605e-05 -3.455738549336964e-05
2.900916050962051e-05 1.873163654805015e-05 3.652443599815990e-05
-2.900916050962051e-05 -1.873163654805015e-05 -3.652443599815990e-05
3.035851440896585e-05 1.968897554664108e-05 3.873260167806481e-05
-3.035851440896585e-05 -1.968897554664108e-05 -3.873260167806481e-05
3.184750711644643e-05 2.075200832237489e-05 4.120848031518142e-05
-3.184750711644643e-05 -2.075200832237489e-05 -4.120848031518142e-05
3.348740254125773e-05 2.193065772589724e-05 4.398193607234923e-05
-3.348740254125773e-05 -2.193065772589724e-05 -4.398193607234923e-05
3.529029169833435e-05 2.323580012213454e-05 4.708635708142206e-05
-3.529029169833435e-05 -2.323580012213454e-05 -4.708635708142206e-05
3.726903882295154e-05 2.467928173951145e-05 5.055889031537702e-05
-3.726903882295154e-05 -2.467928173951145e-05 -5.055889031537702e-05
3.943718967460613e-05 2.627391123389010e-05 5.444063258288161e-05
-3.943718967460613e-05 -2.627391123389010e-05 -5.444063258288161e-05
4.180883201347587e-05 2.803341936482273e-05 5.877674944087513e-05
-4.180883201347587e-05 -2.803341936482273e-05 -5.877674944087513e-05
4.439839691421914e-05 2.997237468199569e-05 6.361648536387294e-05
-4.439839691421914e-05 -2.997237468199569e-05 -6.361648536387294e-05
4.722038849743972e-05 3.210604198988207e-05 6.901301868154531e-05
-4.722038849743972e-05 -3.210604198988207e-05 -6.901301868154531e-05
5.028902902923461e-05 3.445016823516305e-05 7.502310384192997e-05
-5.028902902923461e-05 -3.445016823516305e-05 -7.502310384192997e-05
5.361780645347483e-05 3.702067856197395e-05 8.170643202184589e-05
-5.361780645347483e-05 -3.702067856197395e-05 -8.170643202184589e-05
5.721891263891789e-05 3.983326392414415e-05 8.912462996041204e-05
-5.721891263891789e-05 -3.983326392414415e-05 -8.912462996041204e-05
6.110256336154242e-05 4.290284127168119e-05 9.733980767218824e-05
-6.110256336154242e-05 -4.290284127168119e-05 -9.733980767218824e-05
6.527619574871593e-05 4.624286851140319e-05 1.064125606347303e-04
-6.527619574871593e-05 -4.624286851140319e-05 -1.064125606347303e-04
6.974354601012210e-05 4.986449987206063e-05 1.163993341574070e-04
-6.974354601012210e-05 -4.986449987206063e-05 -1.163993341574070e-04
7.450362009049471e-05 5.377557376172249e-05 1.273490707167402e-04
-7.450362009049471e-05 -5.377557376172249e-05 -1.273490707167402e-04
7.954958250545959e-05 5.797943547629234e-05 1.392990894771983e-04
-7.954958250545959e-05 -5.797943547629234e-05 -1.392990894771983e-04
8.486760381812147e-05 6.247361186364056e-05 1.522701955475727e-04
-8.486760381812147e-05 -6.247361186364056e-05 -1.522701955475727e-04
9.043572424237565e-05 6.724837460781688e-05 1.662610886548313e-04
-9.043572424237565e-05 -6.724837460781688e-05 -1.662610886548313e-04
9.622280837046996e-05 7.228525293717289e-05 1.812422389158308e-04
-9.622280837046996e-05 -7.228525293717289e-05 -1.812422389158308e-04
1.021876820056870e-04 7.755558418075295e-05 1.971495199073568e-04
-1.021876820056870e-04 -7.755558418075295e-05 -1.971495199073568e-04
1.082785539276523e-04 8.301921946445092e-05 2.138780297356877e-04
-1.082785539276523e-04 -8.301921946445092e-05 -2.138780297356877e-04
1.144328301529147e-04 8.862352840587439e-05 2.312766759224243e-04
-1.144328301529147e-04 -8.862352840587439e-05 -2.312766759224243e-04
1.205774229533296e-04 9.430286610585592e-05 2.491442285656538e-04
-1.205774229533296e-04 -9.430286610585592e-05 -2.491442285656538e-04
1.266296392702191e-04 9.997867228481302e-05 2.672276301769976e-04
-1.266296392702191e-04 -9.997867228481302e-05 -2.672276301769976e-04
1.324987022183609e-04 1.055603601402049e-04 2.852233572657375e-04
-1.324987022183609e-04 -1.055603601402049e-04 -2.852233572657375e-04
1.380879159979601e-04 1.109471164791763e-04 3.027825266978970e-04
-1.380879159979601e-04 -1.109471164791763e-04 -3.027825266978970e-04
1.432974318194626e-04 1.160306724654799e-04 3.195202067120809e-04
-1.432974318194626e-04 -1.160306724654799e-04 -3.195202067120809e-04
1.480275155933740e-04 1.206990174648532e-04 3.350290240940621e-04
-1.480275155933740e-04 -1.206990174648532e-04 -3.350290240940621e-04
1.521821638547958e-04 1.248409236666116e-04 3.488966777910563e-04
-1.521821638547958e-04 -1.248409236666116e-04 -3.488966777910563e-04
1.556728700122307e-04 1.283510386346342e-04 3.607264288004525e-04
-1.556728700122307e-04 -1.283510386346342e-04 -3.607264288004525e-04
1.584223163754980e-04 1.311352046158821e-04 3.701591224498330e-04
-1.584223163754980e-04 -1.311352046158821e-04 -3.701591224498330e-04
1.603677766048822e-04 1.331156095761492e-04 3.768949568527858e-04
-1.603677766048822e-04 -1.331156095761492e-04 -3.768949568527858e-04
1.614642902642838e-04 1.342356177769679e-04 3.807139386709830e-04
-1.614642902642838e-04 -1.342356177769679e-04 -3.807139386709830e-04
1.619816808387031e-04 1.347650466513489e-04 3.825215644650326e-04
-1.619816808387031e-04 -1.347650466513489e-04 -3.825215644650326e-04
1.630917289460672e-04 1.359029854802258e-04 3.864119888256509e-04
-1.630917289460672e-04 -1.359029854802258e-04 -3.864119888256509e-04
1.651077131945627e-04 1.379768304048668e-04 3.935201410301603e-04
-1.651077131945627e-04 -1.379768304048668e-04 -3.935201410301603e-04
1.680629287674571e-04 1.410337117760372e-04 4.040396497483450e-04
-1.680629287674571e-04 -1.410337117760372e-04 -4.040396497483450e-04
1.720058294062377e-04 1.451435803908399e-04 4.182603662723808e-04
-1.720058294062377e-04 -1.451435803908399e-04 -4.182603662723808e-04
1.770013989573962e-04 1.504024248493662e-04 4.365838927068728e-04
-1.770013989573962e-04 -1.504024248493662e-04 -4.365838927068728e-04
1.831325103304215e-04 1.569363227056307e-04 4.595440776123395e-04
-1.831325103304215e-04 -1.569363227056307e-04 -4.595440776123395e-04
1.905015298815166e-04 1.649068660669824e-04 4.878350179365666e-04
-1.905015298815166e-04 -1.649068660669824e-04 -4.878350179365666e-04
1.992321284045286e-04 1.745183256335996e-04 5.223488211763113e-04
-1.992321284045286e-04 -1.745183256335996e-04 -5.223488211763113e-04
2.094711856945150e-04 1.860270206440621e-04 5.642261843853050e-04
-2.094711856945150e-04 -1.860270206440621e-04 -5.642261843853050e-04
2.213905793710696e-04 1.997535209919863e-04 6.149240333274641e-04
-2.213905793710696e-04 -1.997535209919863e-04 -6.149240333274641e-04
2.351884936976430e-04 2.160985223393768e-04 6.763061321844510e-04
-2.351884936976430e-04 -2.160985223393768e-04 -6.763061321844510e-04
2.510896327823995e-04 2.355635235502704e-04 7.507649260381836e-04
-2.510896327823995e-04 -2.355635235502704e-04 -7.507649260381836e-04
2.693433171736951e-04 2.587778249167620e-04 8.413862206609549e-04
-2.693433171736951e-04 -2.587778249167620e-04 -8.413862206609549e-04
2.902177920737799e-04 2.865338919428480e-04 9.521730872093976e-04
-2.902177920737799e-04 -2.865338919428480e-04 -9.521730872093976e-04
3.139880334362267e-04 3.198338419755771e-04 1.088352267328603e-03
-3.139880334362267e-04 -3.198338419755771e-04 -1.088352267328603e-03
3.409126722232388e-04 3.599507747948987e-04 1.256796328880813e-03
-3.409126722232388e-04 -3.599507747948987e-04 -1.256796328880813e-03
3.711929946990139e-04 4.085099677430844e-04 1.466609337680575e-03
-3.711929946990139e-04 -4.085099677430844e-04 -1.466609337680575e-03
4.049027223654814e-04 4.675966965210612e-04 1.729945016425587e-03
-4.049027223654814e-04 -4.675966965210612e-04 -1.729945016425587e-03
4.418704781526271e-04 5.398997480179770e-04 2.063157427154405e-03
-4.418704781526271e-04 -5.398997480179770e-04 -2.063157427154405e-03
4.814859925906742e-04 6.289026890570698e-04 2.488429771423216e-03
-4.814859925906742e-04 -6.289026890570698e-04 -2.488429771423216e-03
5.223838022669439e-04 7.391387374551931e-04 3.036093634086593e-03
-5.223838022669439e-04 -7.391387374551931e-04 -3.036093634086593e-03
5.619307003564768e-04 8.765296181447481e-04 3.747948309739045e-03
-5.619307003564768e-04 -8.765296181447481e-04 -3.747948309739045e-03
5.953997634480082e-04 1.048833735559152e-03 4.682030464978298e-03
-5.953997634480082e-04 -1.048833735559152e-03 -4.682030464978298e-03
6.146458079595593e-04 1.266233332340615e-03 5.919484279248725e-03
-6.146458079595593e-04 -1.266233332340615e-03 -5.919484279248725e-03
6.059923819029174e-04 1.542091634876298e-03 7.574458547750212e-03
-6.059923819029174e-04 -1.542091634876298e-03 -7.574458547750212e-03
5.468828589918220e-04 1.893904274883454e-03 9.808321275011491e-03
-5.468828589918220e-04 -1.893904274883454e-03 -9.808321275011491e-03
4.006204201531145e-04 2.344444700078107e-03 1.284992062349672e-02
-4.006204201531145e-04 -2.344444700078107e-03 -1.284992062349672e-02
1.082138179099948e-04 2.923042765752863e-03 1.702405197544789e-02
-1.082138179099948e-04 -2.923042765752863e-03 -1.702405197544789e-02
-4.240194749338298e-04 3.666807785200257e-03 2.279046999350701e-02
4.240194749338298e-04 -3.666807785200257e-03 -2.279046999350701e-02
-1.342748669597743e-03 4.621360614752149e-03 3.079511256690934e-02
1.342748669597743e-03 -4.621360614752149e-03 -3.079511256690934e-02
-2.873390632031596e-03 5.840196075999686e-03 4.193235191349052e-02
2.873390632031596e-03 -5.840196075999686e-03 -4.193235191349052e-02
-5.353589278905985e-03 7.381052094225395e-03 5.740931079812418e-02
5.353589278905985e-03 -7.381052094225395e-03 -5.740931079812418e-02
-9.270310211108366e-03 9.296505325362553e-03 7.878527147662628e-02
9.270310211108366e-03 -9.296505325362553e-03 -7.878527147662628e-02
-1.528546168771527e-02 1.161443993244123e-02 1.079217376490408e-01
1.528546168771527e-02 -1.161443993244123e-02 -1.079217376490408e-01
-2.421138572961942e-02 1.430256263472377e-02 1.467095853161944e-01
2.421138572961942e-02 -1.430256263472377e-02 -1.467095853161944e-01
-3.685562209956148e-02 1.721203854482416e-02 1.963375795516668e-01
3.685562209956148e-02 -1.721203854482416e-02 -1.963375795516668e-01
-5.360358429461932e-02 2.000499156094636e-02 2.557936596301822e-01
5.360358429461932e-02 -2.000499156094636e-02 -2.557936596301822e-01
-7.361494036385871e-02 2.209968861765976e-02 3.194808259432356e-01
7.361494036385871e-02 -2.209968861765976e-02 -3.194808259432356e-01
-9.374002867867727e-02 2.271569164385153e-02 3.747071838214976e-01
9.374002867867727e-02 -2.271569164385153e-02 -3.747071838214976e-01
-1.078524334633568e-01 2.111962662302150e-02 4.014300374679876e-01
1.078524334633568e-01 -2.111962662302150e-02 -4.014300374679876e-01
-1.078644308459635e-01 1.705704962899204e-02 3.774146482978113e-01
1.078644308459635e-01 -1.705704962899204e-02 -3.774146482978113e-01
-8.709927267189123e-02 1.110323920591649e-02 2.889536587681906e-01
8.709927267189123e-02 -1.110323920591649e-02 -2.889536587681906e-01
-4.444361143541534e-02 4.558317367666752e-03 1.408889158310632e-01
4.444361143541534e-02 -4.558317367666752e-03 -1.408889158310632e-01
1.403159547795048e-02 -1.157010775414772e-03 -4.281075567885377e-02
-1.403159547795048e-02 1.157010775414772e-03 4.281075567885377e-02
7.766346039091436e-02 -5.161349703624503e-03 -2.295996267078120e-01
-7.766346039091436e-02 5.161349703624503e-03 2.295996267078120e-01
1.359815176557898e-01 -7.351642103131421e-03 -3.920320740734902e-01
-1.359815176557898e-01 7.351642103131421e-03 3.920320740734902e-01
1.821873655721177e-01 -8.180664468518348e-03 -5.153638570387682e-01
-1.821873655721177e-01 8.180664468518348e-03 5.153638570387682e-01
2.137182389269720e-01 -8.273895919669589e-03 -5.967288173107966e-01
-2.137182389269720e-01 8.273895919669589e-03 5.967288173107966e-01
2.307270453886680e-01 -8.150934034972697e-03 -6.395943166668974e-01
-2.307270453886680e-01 8.150934034972697e-03 6.395943166668974e-01
2.385114717743226e-01 -8.050596651919081e-03 -6.589517885694294e-01
-2.385114717743226e-01 8.050596651919081e-03 6.589517885694294e-01
2.546115431328788e-01 -7.747485901957452e-03 -6.984219259486864e-01
-2.546115431328788e-01 7.747485901957452e-03 6.984219259486864e-01
2.814072527792799e-01 -6.912337686563393e-03 -7.621557235122116e-01
-2.814072527792799e-01 6.912337686563393e-03 7.621557235122116e-01
3.138027974724769e-01 -5.129587188246952e-03 -8.346330204081612e-01
-3.138027974724769e-01 5.129587188246952e-03 8.346330204081612e-01
3.418706643626223e-01 -2.062158146543652e-03 -8.884146295690821e-01
-3.418706643626223e-01 2.062158146543652e-03 8.884146295690821e-01
3.500635208948549e-01 2.128400667346994e-03 -8.846091811397748e-01
-3.500635208948549e-01 -2.128400667346994e-03 8.846091811397748e-01
3.203004387336779e-01 6.298184435374691e-03 -7.836462320133580e-01
-3.203004387336779e-01 -6.298184435374691e-03 7.836462320133580e-01
2.412145393597338e-01 8.294110011421978e-03 -5.691365898876660e-01
-2.412145393597338e-01 -8.294110011421978e-03 5.691365898876660e-01
1.202116701895207e-01 6.001022471579052e-03 -2.725807598083733e-01
-1.202116701895207e-01 -6.001022471579052e-03 2.725807598083733e-01
-1.306969134797627e-02 -8.622395289267955e-04 2.839414928053952e-02
1.306969134797627e-02 8.622395289267955e-04 -2.839414928053952e-02
-1.209308728629317e-01 -9.947932782189436e-03 2.510631572039163e-01
1.209308728629317e-01 9.947932782189436e-03 -2.510631572039163e-01
-1.801569549894148e-01 -1.775651628639519e-02 3.566403019205223e-01
1.801569549894148e-01 1.775651628639519e-02 -3.566403019205223e-01
-1.919910986442568e-01 -2.201645708528957e-02 3.617567978334521e-01
1.919910986442568e-01 2.201645708528957e-02 -3.617567978334521e-01
-1.732823253012842e-01 -2.260325817765048e-02 3.103332944740655e-01
1.732823253012842e-01 2.260325817765048e-02 -3.103332944740655e-01
-1.421200175340095e-01 -2.071259113400693e-02 2.416555011013572e-01
1.421200175340095e-01 2.071259113400693e-02 -2.416555011013572e-01
-1.102729302258810e-01 -1.769628813922403e-02 1.778851637356528e-01
1.102729302258810e-01 1.769628813922403e-02 -1.778851637356528e-01
-8.299362193026573e-02 -1.448967869027315e-02 1.269483704836125e-01
8.299362193026573e-02 1.448967869027315e-02 -1.269483704836125e-01
-6.154467213386868e-02 -1.157224757773452e-02 8.924306520520325e-02
6.154467213386868e-02 1.157224757773452e-02 -8.924306520520325e-02
-4.541536998931089e-02 -9.118515458257172e-03 6.242733401021115e-02
4.541536998931089e-02 9.118515458257172e-03 -6.242733401021115e-02
-3.356121835996594e-02 -7.142852692994938e-03 4.373909267529273e-02
3.356121835996594e-02 7.142852692994938e-03 -4.373909267529273e-02
-2.494000347533962e-02 -5.591148696930320e-03 3.082744135998670e-02
2.494000347533962e-02 5.591148696930320e-03 -3.082744135998670e-02
-1.868824947440425e-02 -4.388989259823781e-03 2.191975743005884e-02
1.868824947440425e-02 4.388989259823781e-03 -2.191975743005884e-02
-1.414599969964945e-02 -3.463734537380337e-03 1.575453194617379e-02
1.414599969964945e-02 3.463734537380337e-03 -1.575453194617379e-02
-1.082897046224126e-02 -2.752908392161419e-03 1.146034457644484e-02
1.082897046224126e-02 2.752908392161419e-03 -1.146034457644484e-02
-8.389268479924966e-03 -2.206057725700416e-03 8.444177910999580e-03
8.389268479924966e-03 2.206057725700416e-03 -8.444177910999580e-03
-6.579555877962211e-03 -1.783841323208731e-03 6.304966065086802e-03
6.579555877962211e-03 1.783841323208731e-03 -6.304966065086802e-03
-5.224631206889424e-03 -1.456191841716550e-03 4.771636368871897e-03
5.224631206889424e-03 1.456191841716550e-03 -4.771636368871897e-03
-4.200310647151059e-03 -1.200383311080306e-03 3.660420559125419e-03
4.200310647151059e-03 1.200383311080306e-03 -3.660420559125419e-03
-3.418261725655835e-03 -9.993303771137008e-04 2.846050487862522e-03
3.418261725655835e-03 9.993303771137008e-04 -2.846050487862522e-03
-2.815310317173475e-03 -8.402078744862808e-04 2.242522775315440e-03
2.815310317173475e-03 8.402078744862808e-04 -2.242522775315440e-03
-2.345970718945776e-03 -7.133781184673651e-04 1.790302781441631e-03
2.345970718945776e-03 7.133781184673651e-04 -1.790302781441631e-03
-1.977245361757673e-03 -6.115778589196681e-04 1.447808697997552e-03
1.977245361757673e-03 6.115778589196681e-04 -1.447808697997552e-03
-1.685003457217982e-03 -5.293108285412109e-04 1.185725532752496e-03
1.685003457217982e-03 5.293108285412109e-04 -1.185725532752496e-03
-1.451452011267479e-03 -4.623974247982921e-04 9.831887494592528e-04
1.451452011267479e-03 4.623974247982921e-04 -9.831887494592528e-04
-1.263361635124402e-03 -4.076420533801381e-04 8.252060130098949e-04
1.263361635124402e-03 4.076420533801381e-04 -8.252060130098949e-04
-1.110814752714745e-03 -3.625875479486622e-04 7.009024314172367e-04
1.110814752714745e-03 3.625875479486622e-04 -7.009024314172367e-04