<?xml version="1.0" ?> 
<!-- 
# vtk DataFile Version 3.0
-->
<VTKFile type="UnstructuredGrid" version="0.1" compressor="vtkZLibDataCompressor" byte_order="LittleEndian">
  <UnstructuredGrid>
    <FieldData>
      <DataArray type="Float64" Name="TIME" NumberOfTuples="1" format="ascii">
2.500000000000000e-01 
      </DataArray>
    </FieldData>

    <Piece NumberOfPoints="408" NumberOfCells="0" >
      <Points>
        <DataArray type="Float64" NumberOfComponents="3" format="ascii">
-1.730855962033678e-02 -1.379809280228560e-02 -8.663911582529085e-02
9.924210621377116e-03 3.591625554450660e-03 -3.994652317405066e-02
-1.660786388634417e-02 -1.234487133723218e-02 -8.650667912685220e-02
9.495484880458009e-03 4.480841596880403e-03 -4.002764597456446e-02
-1.592558723627684e-02 -1.092984219526790e-02 -8.637770825286897e-02
9.078026388652193e-03 5.346688688941171e-03 -4.010663721806686e-02
-1.526436883554899e-02 -9.558479847247711e-03 -8.625270389153643e-02
8.673450224323358e-03 6.185816980013780e-03 -4.018319126399660e-02
-1.462676636196681e-02 -8.236089822731383e-03 -8.613215141651206e-02
8.283321627018947e-03 6.994979985793729e-03 -4.025701189753465e-02
-1.401524611759716e-02 -6.967788183833860e-03 -8.601651898096428e-02
7.909149941613984e-03 7.771047149336656e-03 -4.032781347626377e-02
-1.343217349385739e-02 -5.758481732109693e-03 -8.590625568052401e-02
7.552382778690515e-03 8.511015953653625e-03 -4.039532203596245e-02
-1.287980382659782e-02 -4.612849025002521e-03 -8.580178979259548e-02
7.214400413735598e-03 9.212023539006192e-03 -4.045927635124741e-02
-1.236027367644522e-02 -3.535322275226277e-03 -8.570352709906327e-02
6.896510446806814e-03 9.871357779988004e-03 -4.051942894695416e-02
-1.187559256801818e-02 -2.530070202959262e-03 -8.561184929898449e-02
6.599942743287627e-03 1.048646777960895e-02 -4.057554705634031e-02
-1.142763521980879e-02 -1.600981906916527e-03 -8.552711251738182e-02
6.325844675228119e-03 1.105497373993503e-02 -4.062741352240892e-02
-1.101813429450748e-02 -7.516518161366785e-04 -8.544964591574966e-02
6.075276681519081e-03 1.157467617142458e-02 -4.067482763888550e-02
-1.064867369722951e-02 1.463422053203873e-05 -8.537975040934032e-02
5.849208163716630e-03 1.204356440607005e-02 -4.071760592765372e-02
-1.032068244617866e-02 6.949116563596145e-04 -8.531769749565297e-02
5.648513732535061e-03 1.245982438318627e-02 -4.075558284979557e-02
-1.003542913576256e-02 1.286548738597427e-03 -8.526372819762291e-02
5.473969817249951e-03 1.282184568244492e-02 -4.078861144790814e-02
-9.794017002431528e-03 1.787256749028018e-03 -8.521805212311549e-02
5.326251644284459e-03 1.312822779113535e-02 -4.081656391849900e-02
-9.597379572586103e-03 2.195099036113346e-03 -8.518084663645183e-02
5.205930572324055e-03 1.337778563189077e-02 -4.083933211684543e-02
-9.446276730027871e-03 2.508499175914070e-03 -8.515225611084495e-02
5.113471684490493e-03 1.356955455718188e-02 -4.085682801313122e-02
-9.341290049148418e-03 2.726250654954724e-03 -8.513239104307636e-02
5.049230931547467e-03 1.370279627494325e-02 -4.086898423345484e-02
-9.282802181734594e-03 2.847559626395775e-03 -8.512132415169554e-02
5.013442517899470e-03 1.377702501154202e-02 -4.087575644709420e-02
-4.519375041894615e-02 -7.162178874902431e-02 -9.189036350416151e-02
2.698752609570194e-02 -3.179691040655203e-02 -3.672205557156123e-02
-4.444243358761978e-02 -7.006412752806648e-02 -9.174952002972959e-02
2.652780627802101e-02 -3.084354768112958e-02 -3.680878237118142e-02
-4.369548870893249e-02 -6.851551126403618e-02 -9.160945311307606e-02
2.607075983391924e-02 -2.989572417112986e-02 -3.689501467911424e-02
-4.295580524339378e-02 -6.698193127115579e-02 -9.147070623299468e-02
2.561815487612279e-02 -2.895710675896909e-02 -3.698041852278290e-02
-4.222624446489229e-02 -6.546932069388295e-02 -9.133381817884513e-02
2.517174229322696e-02 -2.803132667535854e-02 -3.706466304295932e-02
-4.150962839933312e-02 -6.398353155216314e-02 -9.119932092447615e-02
2.473324897857905e-02 -2.712196545212317e-02 -3.714742178317065e-02
-4.080872891617758e-02 -6.253031210052408e-02 -9.106773752412231e-02
2.430437115253135e-02 -2.623254106783560e-02 -3.722837396302026e-02
-4.012625701488293e-02 -6.111528458861541e-02 -9.093958003944468e-02
2.388676780383540e-02 -2.536649433983771e-02 -3.730720573026448e-02
-3.946485234748261e-02 -5.974392350924150e-02 -9.081534750675670e-02
2.348205427548191e-02 -2.452717561525790e-02 -3.738361138657068e-02
-3.882707301763450e-02 -5.842153441804404e-02 -9.069552395328749e-02
2.309179601972742e-02 -2.371783181246641e-02 -3.745729458199389e-02
-3.821538569539930e-02 -5.715323340677220e-02 -9.058057647109061e-02
2.271750254638953e-02 -2.294159386304145e-02 -3.752796947334283e-02
-3.763215608579566e-02 -5.594392730953861e-02 -9.047095335690729e-02
2.236062158774173e-02 -2.220146460275954e-02 -3.759536184176482e-02
-3.707963978781453e-02 -5.479829471860218e-02 -9.036708232595025e-02
2.202253350249557e-02 -2.150030715836796e-02 -3.765921016505787e-02
-3.655997357906576e-02 -5.372076788305461e-02 -9.026936880718639e-02
2.170454594042358e-02 -2.084083387495239e-02 -3.771926664041889e-02
-3.607516715956985e-02 -5.271551556030463e-02 -9.017819432727074e-02
2.140788878815407e-02 -2.022559582658393e-02 -3.777529815355572e-02
-3.562709538638727e-02 -5.178642688643632e-02 -9.009391498982512e-02
2.113370941554277e-02 -1.965697295058457e-02 -3.782708719033073e-02
-3.521749102875944e-02 -5.093709632728766e-02 -9.001686005625394e-02
2.088306824078526e-02 -1.913716484316568e-02 -3.787443268736539e-02
-3.484793807111961e-02 -5.017080976724889e-02 -8.994733063374075e-02
2.065693463100837e-02 -1.866818225122759e-02 -3.791715081833090e-02
-3.451986558840836e-02 -4.949053178667491e-02 -8.988559847540900e-02
2.045618315328277e-02 -1.825183929137236e-02 -3.795507571301428e-02
-3.423454221361415e-02 -4.889889416940393e-02 -8.983190489668462e-02
2.028159018823267e-02 -1.788974642143577e-02 -3.798806010679405e-02
-3.399307120771777e-02 -4.839818566163881e-02 -8.978645980997831e-02
2.013383091245313e-02 -1.758330417746304e-02 -3.801597591930629e-02
-3.379638611129590e-02 -4.799034293929016e-02 -8.974944087391462e-02
2.001347663701974e-02 -1.733369764979372e-02 -3.803871476467403e-02
-3.364524681514103e-02 -4.767694244661476e-02 -8.972099272656772e-02
1.992099240254681e-02 -1.714189149183673e-02 -3.805618841209086e-02
-3.354023489574968e-02 -4.745919071297890e-02 -8.970122608548182e-02
1.985673412453388e-02 -1.700862399681904e-02 -3.806832933019378e-02
-3.348173299985806e-02 -4.733788159635452e-02 -8.969021385025842e-02
1.982093597820139e-02 -1.693438093251757e-02 -3.807509307442673e-02
-3.345429754853545e-02 -4.728099160633245e-02 -8.968504940647001e-02
1.980414783110976e-02 -1.689956338159756e-02 -3.807826506291422e-02
-3.339579571913814e-02 -4.715968248846991e-02 -8.967403688438465e-02
1.976834971584071e-02 -1.682532034614606e-02 -3.808502886973090e-02
-3.329078414620897e-02 -4.694193074838232e-02 -8.965426874863174e-02
1.970409159968087e-02 -1.669205300144831e-02 -3.809717011392037e-02
-3.313964586074200e-02 -4.662853023688612e-02 -8.962581624109182e-02
1.961160783736040e-02 -1.650024728199972e-02 -3.811464471258605e-02
-3.294296298439071e-02 -4.622068747319595e-02 -8.958878772745629e-02
1.949125459905370e-02 -1.625064171755439e-02 -3.813738564746096e-02
-3.270149610340384e-02 -4.571997888861781e-02 -8.954332484554207e-02
1.934349725026323e-02 -1.594420126325785e-02 -3.816530534229515e-02
-3.241617959053827e-02 -4.512834114356578e-02 -8.948960166387816e-02
1.916890749082287e-02 -1.558211137050322e-02 -3.819829619445165e-02
-3.208811765934683e-02 -4.444806296650412e-02 -8.942782398539920e-02
1.896816094232492e-02 -1.516577298861695e-02 -3.823623102011914e-02
-3.171857999695909e-02 -4.368177612164124e-02 -8.935822857787733e-02
1.874203447783405e-02 -1.469679703277185e-02 -3.827896354682619e-02
-3.130899681301911e-02 -4.283244516820173e-02 -8.928108229922932e-02
1.849140319448745e-02 -1.417699811184069e-02 -3.832632897233730e-02
-3.086095328437840e-02 -4.190335596837096e-02 -8.919668111244551e-02
1.821723701642637e-02 -1.360838749000540e-02 -3.837814459262603e-02
-3.037618340609675e-02 -4.089810296516011e-02 -8.910534899064676e-02
1.792059693444397e-02 -1.299316529520802e-02 -3.843421049805815e-02
-2.985656326906962e-02 -3.982057527167707e-02 -8.900743671458639e-02
1.760263089471166e-02 -1.233371199992219e-02 -3.849431033579376e-02
-2.930410378913475e-02 -3.867494162268997e-02 -8.890332056578139e-02
1.726456935172137e-02 -1.163257920547951e-02 -3.855821213589115e-02
-2.872094291544505e-02 -3.746563424547421e-02 -8.879340091906249e-02
1.690772050238373e-02 -1.089247976492686e-02 -3.862566919824038e-02
-2.810933734821743e-02 -3.619733171178226e-02 -8.867810073886143e-02
1.653346521964778e-02 -1.011627728235568e-02 -3.869642103716646e-02
-2.747165379798187e-02 -3.487494083700196e-02 -8.855786398405782e-02
1.614325170525248e-02 -9.306975029235717e-03 -3.877019438027632e-02
-2.681035982027085e-02 -3.350357769639378e-02 -8.843315392670573e-02
1.573858988233899e-02 -8.467704320620769e-03 -3.884670421787781e-02
-2.612801426132985e-02 -3.208854783177108e-02 -8.830445139044872e-02
1.532104554966935e-02 -7.601712396218407e-03 -3.892565489906517e-02
-2.542725735192170e-02 -3.063532572516126e-02 -8.817225291491276e-02
1.489223432012264e-02 -6.712349853254486e-03 -3.900674127034465e-02
-2.471080048763162e-02 -2.914953361883733e-02 -8.803706885282926e-02
1.445381536696752e-02 -5.803057679800307e-03 -3.908964985246964e-02
-2.398141573526303e-02 -2.763691976365218e-02 -8.789942140708229e-02
1.400748500214776e-02 -4.877353938781496e-03 -3.917406005096413e-02
-2.324192510594054e-02 -2.610333617982646e-02 -8.775984261528488e-02
1.355497011145674e-02 -3.938820154235500e-03 -3.925964539564381e-02
-2.249518963640682e-02 -2.455471601623394e-02 -8.761887228986448e-02
1.309802147202033e-02 -2.991087452533239e-03 -3.934607480429191e-02
-2.174409832070966e-02 -2.299705059578351e-02 -8.747705592197033e-02
[...]
  <PointData>
        <DataArray type="Float64" Name="force" NumberOfComponents="3" format="ascii">
3.259253229786281e-04 2.081221246192202e-04 5.588228428034036e-04
-3.259253229786281e-04 -2.081221246192202e-04 -5.588228428034036e-04
3.632199552730905e-04 2.341242454898648e-04 6.467410710420109e-04
-3.632199552730905e-04 -2.341242454898648e-04 -6.467410710420109e-04
4.048751430512972e-04 2.635600875794796e-04 7.492517602628366e-04
-4.048751430512972e-04 -2.635600875794796e-04 -7.492517602628366e-04
4.511552376844180e-04 2.967318561648235e-04 8.682702660233468e-04
-4.511552376844180e-04 -2.967318561648235e-04 -8.682702660233468e-04
5.022475399782572e-04 3.339034977917055e-04 1.005699765807650e-03
-5.022475399782572e-04 -3.339034977917055e-04 -1.005699765807650e-03
5.582276208740265e-04 3.752721757676627e-04 1.163301875171889e-03
-5.582276208740265e-04 -3.752721757676627e-04 -1.163301875171889e-03
6.190203448058235e-04 4.209333636854682e-04 1.342520024165463e-03
-6.190203448058235e-04 -4.209333636854682e-04 -1.342520024165463e-03
6.843588373043652e-04 4.708404337445901e-04 1.544253358743694e-03
-6.843588373043652e-04 -4.708404337445901e-04 -1.544253358743694e-03
7.537448750728793e-04 5.247608371176032e-04 1.768585774015537e-03
-7.537448750728793e-04 -5.247608371176032e-04 -1.768585774015537e-03
8.264153851495445e-04 5.822324762601263e-04 2.014484770205715e-03
-8.264153851495445e-04 -5.822324762601263e-04 -2.014484770205715e-03
9.013206494834267e-04 6.425254831704378e-04 2.279497706049474e-03
-9.013206494834267e-04 -6.425254831704378e-04 -2.279497706049474e-03
9.771200959919823e-04 7.046160395173194e-04 2.559487104098872e-03
-9.771200959919823e-04 -7.046160395173194e-04 -2.559487104098872e-03
1.052200909939045e-03 7.671796805612353e-04 2.848458916383760e-03
-1.052200909939045e-03 -7.671796805612353e-04 -2.848458916383760e-03
1.124722940004924e-03 8.286112367596739e-04 3.138543799163854e-03
-1.124722940004924e-03 -8.286112367596739e-04 -3.138543799163854e-03
1.192690556649684e-03 8.870767773395751e-04 3.420186715233767e-03
-1.192690556649684e-03 -8.870767773395751e-04 -3.420186715233767e-03
1.254048596888715e-03 9.405994589498304e-04 3.682580865745126e-03
-1.254048596888715e-03 -9.405994589498304e-04 -3.682580865745126e-03
1.306795912564101e-03 9.871762795816313e-04 3.914347329524896e-03
-1.306795912564101e-03 -9.871762795816313e-04 -3.914347329524896e-03
1.349107076187496e-03 1.024917121776469e-03 4.104415890698202e-03
-1.349107076187496e-03 -1.024917121776469e-03 -4.104415890698202e-03
1.379451327665491e-03 1.052192460593922e-03 4.243015412711919e-03
-1.379451327665491e-03 -1.052192460593922e-03 -4.243015412711919e-03
1.396701833475494e-03 1.067776318652157e-03 4.322663309527192e-03
-1.396701833475494e-03 -1.067776318652157e-03 -4.322663309527192e-03
2.116357504209778e-05 1.167646916492148e-05 1.617532322125350e-05
-2.116357504209778e-05 -1.167646916492148e-05 -1.617532322125350e-05
2.222758414003579e-05 1.228351745803396e-05 1.720716494787866e-05
-2.222758414003579e-05 -1.228351745803396e-05 -1.720716494787866e-05
2.335814595442515e-05 1.292991770230136e-05 1.831866435463568e-05
-2.335814595442515e-05 -1.292991770230136e-05 -1.831866435463568e-05
2.455539487356935e-05 1.361594966637081e-05 1.951217449205054e-05
-2.455539487356935e-05 -1.361594966637081e-05 -1.951217449205054e-05
2.581858725694913e-05 1.434139125832524e-05 2.078918698817440e-05
-2.581858725694913e-05 -1.434139125832524e-05 -2.078918698817440e-05
2.714592627994477e-05 1.510541129396548e-05 2.215008229967307e-05
-2.714592627994477e-05 -1.510541129396548e-05 -2.215008229967307e-05
2.853437955461136e-05 1.590645648950617e-05 2.359385484907608e-05
-2.853437955461136e-05 -1.590645648950617e-05 -2.359385484907608e-05
2.997949595969995e-05 1.674213639777696e-05 2.511781981908156e-05
-2.997949595969995e-05 -1.674213639777696e-05 -2.511781981908156e-05
3.147523016262793e-05 1.760911132358878e-05 2.671731197422568e-05
-3.147523016262793e-05 -1.760911132358878e-05 -2.671731197422568e-05
3.301378539911120e-05 1.850298962624108e-05 2.838539091330397e-05
-3.301378539911120e-05 -1.850298962624108e-05 -2.838539091330397e-05
3.458548700244558e-05 1.941824212931444e-05 3.011257135760849e-05
-3.458548700244558e-05 -1.941824212931444e-05 -3.011257135760849e-05
3.617870069696357e-05 2.034814245406074e-05 3.188660104742408e-05
-3.617870069696357e-05 -2.034814245406074e-05 -3.188660104742408e-05
3.777981049627353e-05 2.128474278240730e-05 3.369231201163575e-05
-3.777981049627353e-05 -2.128474278240730e-05 -3.369231201163575e-05
3.937327086176894e-05 2.221889462753089e-05 3.551157274010609e-05
-3.937327086176894e-05 -2.221889462753089e-05 -3.551157274010609e-05
4.094174628136766e-05 2.314032343549312e-05 3.732336842037173e-05
-4.094174628136766e-05 -2.314032343549312e-05 -3.732336842037173e-05
4.246634838895832e-05 2.403776408755613e-05 3.910403323715954e-05
-4.246634838895832e-05 -2.403776408755613e-05 -3.910403323715954e-05
4.392697605202064e-05 2.489916152193701e-05 4.082765228523077e-05
-4.392697605202064e-05 -2.489916152193701e-05 -4.082765228523077e-05
4.530275758039704e-05 2.571193676501047e-05 4.246664074180364e-05
-4.530275758039704e-05 -2.571193676501047e-05 -4.246664074180364e-05
4.657258665271667e-05 2.646331382587217e-05 4.399249487105123e-05
-4.657258665271667e-05 -2.646331382587217e-05 -4.399249487105123e-05
4.771573526633588e-05 2.714069750575620e-05 4.537669403289069e-05
-4.771573526633588e-05 -2.714069750575620e-05 -4.537669403289069e-05
4.871251877715522e-05 2.773208671371706e-05 4.659171656652849e-05
-4.871251877715522e-05 -2.773208671371706e-05 -4.659171656652849e-05
4.954498090714624e-05 2.822650302354506e-05 4.761211718045173e-05
-4.954498090714624e-05 -2.822650302354506e-05 -4.761211718045173e-05
5.019756183709494e-05 2.861441085760643e-05 4.841560192974511e-05
-5.019756183709494e-05 -2.861441085760643e-05 -4.841560192974511e-05
5.065771433810519e-05 2.888810641025203e-05 4.898403513174952e-05
-5.065771433810519e-05 -2.888810641025203e-05 -4.898403513174952e-05
5.091649630692089e-05 2.904209002416432e-05 4.930438963356244e-05
-5.091649630692089e-05 -2.904209002416432e-05 -4.930438963356244e-05
5.103846137753096e-05 2.911467856498396e-05 4.945554259791115e-05
-5.103846137753096e-05 -2.911467856498396e-05 -4.945554259791115e-05
5.129983165208770e-05 2.927026841380155e-05 4.977982492490987e-05
-5.129983165208770e-05 -2.927026841380155e-05 -4.977982492490987e-05
5.177347111841293e-05 2.955233367233995e-05 5.036872548980074e-05
-5.177347111841293e-05 -2.955233367233995e-05 -5.036872548980074e-05
5.246540385727673e-05 2.996466280677341e-05 5.123193421952338e-05
-5.246540385727673e-05 -2.996466280677341e-05 -5.123193421952338e-05
5.338434819064288e-05 3.051275141352819e-05 5.238361448930274e-05
-5.338434819064288e-05 -3.051275141352819e-05 -5.238361448930274e-05
5.454197072955072e-05 3.120396874041981e-05 5.384288573145761e-05
-5.454197072955072e-05 -3.120396874041981e-05 -5.384288573145761e-05
5.595312589975105e-05 3.204772153732730e-05 5.563435344198444e-05
-5.595312589975105e-05 -3.204772153732730e-05 -5.563435344198444e-05
5.763615374987865e-05 3.305565965862905e-05 5.778878876937727e-05
-5.763615374987865e-05 -3.305565965862905e-05 -5.778878876937727e-05
5.961324766060491e-05 3.424193178842460e-05 6.034398803131495e-05
-5.961324766060491e-05 -3.424193178842460e-05 -6.034398803131495e-05
6.191090049038265e-05 3.562349826251277e-05 6.334584347795575e-05
-6.191090049038265e-05 -3.562349826251277e-05 -6.334584347795575e-05
6.456043837407153e-05 3.722050889776884e-05 6.684966328564575e-05
-6.456043837407153e-05 -3.722050889776884e-05 -6.684966328564575e-05
6.759865249527942e-05 3.905675504503072e-05 7.092178723155521e-05
-6.759865249527942e-05 -3.905675504503072e-05 -7.092178723155521e-05
7.106854018795184e-05 4.116020648707518e-05 7.564155443069750e-05
-7.106854018795184e-05 -4.116020648707518e-05 -7.564155443069750e-05
7.502016747004095e-05 4.356364520584433e-05 8.110369093338460e-05
-7.502016747004095e-05 -4.356364520584433e-05 -8.110369093338460e-05
7.951166533786792e-05 4.630540932951418e-05 8.742119787931150e-05
-7.951166533786792e-05 -4.630540932951418e-05 -8.742119787931150e-05
8.461037153513042e-05 4.943026157244046e-05 9.472883512945656e-05
-8.461037153513042e-05 -4.943026157244046e-05 -9.472883512945656e-05
9.039412761140068e-05 5.299039694661499e-05 1.031873104239102e-04
-9.039412761140068e-05 -5.299039694661499e-05 -1.031873104239102e-04
9.695273729184191e-05 5.704660407977760e-05 1.129882992836000e-04
-9.695273729184191e-05 -5.704660407977760e-05 -1.129882992836000e-04
1.043895856734065e-04 6.166959258846732e-05 1.243604345610188e-04
-1.043895856734065e-04 -6.166959258846732e-05 -1.243604345610188e-04
1.128234084667850e-04 6.694149487530140e-05 1.375764142303968e-04
-1.128234084667850e-04 -6.694149487530140e-05 -1.375764142303968e-04
1.223901850430823e-04 7.295754342473959e-05 1.529613777351697e-04
-1.223901850430823e-04 -7.295754342473959e-05 -1.529613777351697e-04
1.332451067202211e-04 7.982791279551835e-05 1.709026890020690e-04
-1.332451067202211e-04 -7.982791279551835e-05 -1.709026890020690e-04
1.455645405252150e-04 8.767969728410796e-05 1.918612293546202e-04
-1.455645405252150e-04 -8.767969728410796e-05 -1.918612293546202e-04
1.595478663546638e-04 9.665896845492659e-05 2.163842336680035e-04
-1.595478663546638e-04 -9.665896845492659e-05 -2.163842336680035e-04
1.754190097618389e-04 1.069328187680474e-04 2.451195813386395e-04
-1.754190097618389e-04 -1.069328187680474e-04 -2.451195813386395e-04
1.934274216231070e-04 1.186912454460904e-04 2.788312578577969e-04
-1.934274216231070e-04 -1.186912454460904e-04 -2.788312578577969e-04
2.138481688007166e-04 1.321486595606868e-04 3.184154053248598e-04
-2.138481688007166e-04 -1.321486595606868e-04 -3.184154053248598e-04
2.369806977850603e-04 1.475447166994136e-04 3.649159488426044e-04
-2.369806977850603e-04 -1.475447166994136e-04 -3.649159488426044e-04
2.631457208187046e-04 1.651440566476902e-04 4.195381865477620e-04
-2.631457208187046e-04 -1.651440566476902e-04 -4.195381865477620e-04
2.926795612046296e-04 1.852344124843411e-04 4.836579351632058e-04
-2.926795612046296e-04 -1.852344124843411e-04 -4.836579351632058e-04
1.404878390981075e-03 1.075182699621507e-03 4.360632547970461e-03
-1.404878390981075e-03 -1.075182699621507e-03 -4.360632547970461e-03
1.422500662242820e-03 1.091188443137605e-03 4.442939923811300e-03
-1.422500662242820e-03 -1.091188443137605e-03 -4.442939923811300e-03
1.454782146685476e-03 1.120662762412801e-03 4.595404052785016e-03
-1.454782146685476e-03 -1.120662762412801e-03 -4.595404052785016e-03
1.502746991344664e-03 1.164826466847577e-03 4.825993484760344e-03
-1.502746991344664e-03 -1.164826466847577e-03 -4.825993484760344e-03
1.567926195106407e-03 1.225554208160391e-03 5.147164718647334e-03
-1.567926195106407e-03 -1.225554208160391e-03 -5.147164718647334e-03
1.652430198240590e-03 1.305525271828706e-03 5.577131327432048e-03
-1.652430198240590e-03 -1.305525271828706e-03 -5.577131327432048e-03
1.759036521622131e-03 1.408440819483078e-03 6.141781870806424e-03
-1.759036521622131e-03 -1.408440819483078e-03 -6.141781870806424e-03
1.891292268748345e-03 1.539337469429535e-03 6.877575150409424e-03
-1.891292268748345e-03 -1.539337469429535e-03 -6.877575150409424e-03
2.053618501980463e-03 1.705036078854093e-03 7.835907390255636e-03
-2.053618501980463e-03 -1.705036078854093e-03 -7.835907390255636e-03
2.251384662953477e-03 1.914782706325275e-03 9.089744028503844e-03
-2.251384662953477e-03 -1.914782706325275e-03 -9.089744028503844e-03
2.490882613190687e-03 2.181165036521744e-03 1.074380102812398e-02
-2.490882613190687e-03 -2.181165036521744e-03 -1.074380102812398e-02
2.779051003327460e-03 2.521424382087216e-03 1.295038105179900e-02
-2.779051003327460e-03 -2.521424382087216e-03 -1.295038105179900e-02
3.122640420153118e-03 2.959331953403934e-03 1.593434906808591e-02
-3.122640420153118e-03 -2.959331953403934e-03 -1.593434906808591e-02
3.526184702552986e-03 3.527853463379250e-03 2.003305652260878e-02
-3.526184702552986e-03 -3.527853463379250e-03 -2.003305652260878e-02
3.987484968198202e-03 4.272862931854015e-03 2.576090792933116e-02
-3.987484968198202e-03 -4.272862931854015e-03 -2.576090792933116e-02
4.487981900002130e-03 5.258098826007761e-03 3.391455450540669e-02
-4.487981900002130e-03 -5.258098826007761e-03 -3.391455450540669e-02
4.972734683150683e-03 6.571125144993212e-03 4.574402147499845e-02
-4.972734683150683e-03 -6.571125144993212e-03 -4.574402147499845e-02
5.309594461873200e-03 8.328523191102090e-03 6.322534151709584e-02
-5.309594461873200e-03 -8.328523191102090e-03 -6.322534151709584e-02
5.208130168809696e-03 1.067378589591436e-02 8.946587909521275e-02
-5.208130168809696e-03 -1.067378589591436e-02 -8.946587909521275e-02
4.067399877891743e-03 1.374751760270159e-02 1.291821050944940e-01
-4.067399877891743e-03 -1.374751760270159e-02 -1.291821050944940e-01
7.312542661062719e-04 1.757126772925785e-02 1.887193952433004e-01
-7.312542661062719e-04 -1.757126772925785e-02 -1.887193952433004e-01
-6.702908826178205e-03 2.169557320213399e-02 2.732050848812159e-01
6.702908826178205e-03 -2.169557320213399e-02 -2.732050848812159e-01
-1.998701827243560e-02 2.435404478088781e-02 3.725366524789058e-01
1.998701827243560e-02 -2.435404478088781e-02 -3.725366524789058e-01
-3.489095714809722e-02 2.135865667775245e-02 4.184604899051860e-01
3.489095714809722e-02 -2.135865667775245e-02 -4.184604899051860e-01
-2.552865109627919e-02 8.192843094170297e-03 2.246902816187282e-01
2.552865109627919e-02 -8.192843094170297e-03 -2.246902816187282e-01
5.590260523509120e-02 -8.405642355266116e-03 -3.875206978953586e-01
-5.590260523509120e-02 8.405642355266116e-03 3.875206978953586e-01
1.865723393729686e-01 -7.219702221147526e-03 -1.064992085366576e+00
-1.865723393729686e-01 7.219702221147526e-03 1.064992085366576e+00
2.097651289048298e-01 8.353869075578427e-03 -1.016856153648214e+00
-2.097651289048298e-01 -8.353869075578427e-03 1.016856153648214e+00
7.671886627181672e-02 7.507019373550358e-03 -3.231105244897830e-01
-7.671886627181672e-02 -7.507019373550358e-03 3.231105244897830e-01
-6.323180300206237e-02 -8.999132139046198e-03 2.354903405334205e-01
6.323180300206237e-02 8.999132139046198e-03 -2.354903405334205e-01
-1.204271655264493e-01 -2.135790449505519e-02 4.022612848854926e-01
1.204271655264493e-01 2.135790449505519e-02 -4.022612848854926e-01
-1.186665209430564e-01 -2.439161663609366e-02 3.597079063064922e-01
1.186665209430564e-01 2.439161663609366e-02 -3.597079063064922e-01
-9.721298579513053e-02 -2.222590343492761e-02 2.700821687471494e-01
9.721298579513053e-02 2.222590343492761e-02 -2.700821687471494e-01
-7.488901798861047e-02 -1.855647242547399e-02 1.923379794632004e-01
7.488901798861047e-02 1.855647242547399e-02 -1.923379794632004e-01
-5.690642574656277e-02 -1.501501846842257e-02 1.361313380727979e-01
5.690642574656277e-02 1.501501846842257e-02 -1.361313380727979e-01
-4.352265471260051e-02 -1.207530231857108e-02 9.763011602185491e-02
4.352265471260051e-02 1.207530231857108e-02 -9.763011602185491e-02
-3.379531445158648e-02 -9.767699404478632e-03 7.152172282467441e-02
3.379531445158648e-02 9.767699404478632e-03 -7.152172282467441e-02
-2.674025135650211e-02 -7.993483756479980e-03 5.368785958556348e-02
2.674025135650211e-02 7.993483756479980e-03 -5.368785958556348e-02
-2.158788716514862e-02 -6.636811240018321e-03 4.133167951406318e-02
2.158788716514862e-02 6.636811240018321e-03 -4.133167951406318e-02
-1.778586624941976e-02 -5.597886961141445e-03 3.262825643884006e-02
1.778586624941976e-02 5.597886961141445e-03 -3.262825643884006e-02
-1.494906115815945e-02 -4.798835071780456e-03 2.639607586695179e-02
1.494906115815945e-02 4.798835071780456e-03 -2.639607586695179e-02
-1.281082431807295e-02 -4.181280220115581e-03 2.186595251921872e-02
1.281082431807295e-02 4.181280220115581e-03 -2.186595251921872e-02
-1.118608550678219e-02 -3.702198014918519e-03 1.853151380887583e-02
1.118608550678219e-02 3.702198014918519e-03 -1.853151380887583e-02
-9.945582829121852e-03 -3.330083690615990e-03 1.605502616647381e-02
9.945582829121852e-03 3.330083690615990e-03 -1.605502616647381e-02
-8.998407002874772e-03 -3.041921235212919e-03 1.420837639908138e-02
8.998407002874772e-03 3.041921235212919e-03 -1.420837639908138e-02
-8.280301826009253e-03 -2.820932149009650e-03 1.283592432537782e-02
8.280301826009253e-03 2.820932149009650e-03 -1.283592432537782e-02
-7.745843363864490e-03 -2.654954584491947e-03 1.183094181955347e-02
7.745843363864490e-03 2.654954584491947e-03 -1.183094181955347e-02
-7.363218661379534e-03 -2.535298827547731e-03 1.112056719034523e-02
7.363218661379534e-03 2.535298827547731e-03 -1.112056719034523e-02
-7.110759103931463e-03 -2.455953799835326e-03 1.065618402514274e-02
7.110759103931463e-03 2.455953799835326e-03 -1.065618402514274e-02
-6.974650413098642e-03 -2.413042529120989e-03 1.040728874473755e-02
6.974650413098642e-03 2.413042529120989e-03 -1.040728874473755e-02
-6.911905651117899e-03 -2.393228729522314e-03 1.029290260471860e-02
6.911905651117899e-03 2.393228729522314e-03 -1.029290260471860e-02
-6.780376862488545e-03 -2.351627402856421e-03 1.005385071783382e-02
6.780376862488545e-03 2.351627402856421e-03 -1.005385071783382e-02
-6.551794840861236e-03 -2.279110883310006e-03 9.640796925624112e-03
6.551794840861236e-03 2.279110883310006e-03 -9.640796925624112e-03
-6.238962980425529e-03 -2.179405417390073e-03 9.080555184272645e-03
6.238962980425529e-03 2.179405417390073e-03 -9.080555184272645e-03
-5.858535031357756e-03 -2.057409691231756e-03 8.407434928463584e-03
5.858535031357756e-03 2.057409691231756e-03 -8.407434928463584e-03
-5.429276281553290e-03 -1.918721682113796e-03 7.659238791375728e-03
5.429276281553290e-03 1.918721682113796e-03 -7.659238791375728e-03
-4.970333976920153e-03 -1.769156318942300e-03 6.873409877333002e-03
4.970333976920153e-03 1.769156318942300e-03 -6.873409877333002e-03
-4.499718054554796e-03 -1.614304974479448e-03 6.083831863180254e-03
4.499718054554796e-03 1.614304974479448e-03 -6.083831863180254e-03
-4.033153697463788e-03 -1.459183254361210e-03 5.318626089544007e-03
4.033153697463788e-03 1.459183254361210e-03 -5.318626089544007e-03
-3.583379242436855e-03 -1.307993378901461e-03 4.599045980820514e-03
3.583379242436855e-03 1.307993378901461e-03 -4.599045980820514e-03
-3.159878492519739e-03 -1.164005892517256e-03 3.939359046165831e-03
3.159878492519739e-03 1.164005892517256e-03 -3.939359046165831e-03
-2.768974312503900e-03 -1.029547605384064e-03 3.347473608312713e-03
2.768974312503900e-03 1.029547605384064e-03 -3.347473608312713e-03
-2.414177823363166e-03 -9.060713268150275e-04 2.826019688375656e-03
2.414177823363166e-03 9.060713268150275e-04 -2.826019688375656e-03
-2.096682520120947e-03 -7.942786124570681e-04 2.373614638226082e-03
2.096682520120947e-03 7.942786124570681e-04 -2.373614638226082e-03
-1.815907407897875e-03 -6.942682108401866e-04 1.986106119824765e-03
1.815907407897875e-03 6.942682108401866e-04 -1.986106119824765e-03
-1.570018227332764e-03 -6.056880642872600e-04 1.657660350349650e-03
1.570018227332764e-03 6.056880642872600e-04 -1.657660350349650e-03
-1.356382769157730e-03 -5.278754285423629e-04 1.381632289372485e-03
1.356382769157730e-03 5.278754285423629e-04 -1.381632289372485e-03
-1.171939694325234e-03 -4.599762293987797e-04 1.151206347694971e-03
1.171939694325234e-03 4.599762293987797e-04 -1.151206347694971e-03
-1.013477628263938e-03 -4.010401555027598e-04 9.598289123765687e-04
1.013477628263938e-03 4.010401555027598e-04 -9.598289123765687e-04
-8.778322636225105e-04 -3.500918029942707e-04 8.014700973163000e-04
8.778322636225105e-04 3.500918029942707e-04 -8.014700973163000e-04
-7.620147706485328e-04 -3.061804916369821e-04 6.707562814416753e-04
7.620147706485328e-04 3.061804916369821e-04 -6.707562814416753e-04
-6.632864708755838e-04 -2.684124537217295e-04 5.630118949105242e-04
6.632864708755838e-04 2.684124537217295e-04 -5.630118949105242e-04