<?xml version="1.0" ?> 
<!-- 
# vtk DataFile Version 3.0
-->
<VTKFile type="UnstructuredGrid" version="0.1" compressor="vtkZLibDataCompressor" byte_order="LittleEndian">
  <UnstructuredGrid>
    <FieldData>
      <DataArray type="Float64" Name="TIME" NumberOfTuples="1" format="ascii">
5.000000000000000e-01 
      </DataArray>
    </FieldData>

    <Piece NumberOfPoints="12" NumberOfCells="2" >
      <Points>
        <DataArray type="Float64" NumberOfComponents="3" format="ascii">
2.357142857140000e+00 3.000000000000000e-01 0.000000000000000e+00
2.485714285712000e+00 3.000000000000000e-01 0.000000000000000e+00
2.614285714284000e+00 3.000000000000000e-01 0.000000000000000e+00
2.742857142856000e+00 3.000000000000000e-01 0.000000000000000e+00
2.871428571428000e+00 3.000000000000000e-01 0.000000000000000e+00
3.000000000000000e+00 3.000000000000000e-01 0.000000000000000e+00
3.000000000000000e+00 3.000000000000000e-01 0.000000000000000e+00
3.100000000000000e+00 3.000000000000000e-01 0.000000000000000e+00
3.200000000000000e+00 3.000000000000000e-01 0.000000000000000e+00
3.300000000000001e+00 3.000000000000000e-01 0.000000000000000e+00
3.399999999999999e+00 2.999999999999999e-01 0.000000000000000e+00
3.500000000000000e+00 3.000000000000000e-01 0.000000000000000e+00
        </DataArray>
      </Points>

      <Cells>
        <DataArray type="Int32" Name="connectivity" format="ascii">
0 1 2 3 4 5 6 7 8 9 10 11 
        </DataArray>
        <DataArray type="Int32" Name="offsets" format="ascii">
6 12 
        </DataArray>
        <DataArray type="UInt8" Name="types" format="ascii">
4 4 
        </DataArray>
      </Cells>

  <PointData>
        <DataArray type="Float64" Name="displacement" NumberOfComponents="3" format="ascii">
-5.101404049436509e-02 -5.748379117057278e-03 8.050230045418491e-01
-5.249511941945784e-02 -5.913590071526531e-03 8.244938141942209e-01
-5.397139333918499e-02 -6.078826282847061e-03 8.439317124140291e-01
-5.544461121807354e-02 -6.244182332044268e-03 8.633481324441823e-01
-5.691652202065267e-02 -6.409752800142998e-03 8.827545075275884e-01
-5.838887471145027e-02 -6.575632268168596e-03 9.021622709071565e-01
-5.838887471144938e-02 -6.575632268168652e-03 9.021622709071566e-01
-5.953546301156898e-02 -6.704923807462071e-03 9.172654767381430e-01
-6.068419954336779e-02 -6.834503989404883e-03 9.323818182358611e-01
-6.183590720785315e-02 -6.964417315082905e-03 9.475166748273585e-01
-6.299140890602839e-02 -7.094708285582174e-03 9.626754259396822e-01
-6.415152753890174e-02 -7.225421401988452e-03 9.778634509998804e-01
        </DataArray>
        <DataArray type="Float64" Name="lambda" NumberOfComponents="3" format="ascii">
4.304139688053709e-06 1.376192749613970e-06 1.932657081903258e-05
-2.764144307510728e-06 6.788469142682082e-07 7.045216618156556e-05
-8.244856968211945e-06 1.451900533518293e-07 1.099104077184662e-04
-1.213799829404994e-05 -2.247778331351664e-07 1.377012954297343e-04
-1.444356828502471e-05 -4.310567451927795e-07 1.538248293153701e-04
-1.516156694113626e-05 -4.736466828210095e-07 1.582810093753735e-04
-1.516156694113626e-05 -4.736466828210094e-07 1.582810093753735e-04
-1.462243015821100e-05 -3.936045038405116e-07 1.536806085055923e-04
-1.312291071593257e-05 -2.145405995887984e-07 1.420221787783925e-04
-1.066300861430099e-05 6.354502993413036e-08 1.233057201937742e-04
-7.242723853316235e-06 4.406523847282745e-07 9.753123275173726e-05
-2.862056432978318e-06 9.167814647936342e-07 6.469871645228173e-05
        </DataArray>
        <DataArray type="Int32" Name="uid_0_pair_beam_id" format="ascii">
16
16
16
16
16
16
16
16
16
16
16
16
        </DataArray>
        <DataArray type="Int32" Name="uid_1_pair_solid_id" format="ascii">
7
7
7
7
7
7
8
8
8
8
8
8
        </DataArray>
  </PointData>
  <CellData>
        <DataArray type="Int32" Name="uid_0_pair_beam_id" format="ascii">
16
16
        </DataArray>
        <DataArray type="Int32" Name="uid_1_pair_solid_id" format="ascii">
7
8
        </DataArray>
      </CellData>

    </Piece>
  </UnstructuredGrid>
</VTKFile>
