<?xml version="1.0" ?> 
<!-- 
# vtk DataFile Version 3.0
-->
<VTKFile type="UnstructuredGrid" version="0.1" compressor="vtkZLibDataCompressor" byte_order="LittleEndian">
  <UnstructuredGrid>
    <FieldData>
      <DataArray type="Float64" Name="TIME" NumberOfTuples="1" format="ascii">
1.000000000000000e+00 
      </DataArray>
    </FieldData>

    <Piece NumberOfPoints="78" NumberOfCells="13" >
      <Points>
        <DataArray type="Float64" NumberOfComponents="3" format="ascii">
-4.500000000000000e+00 3.000000000000000e-01 0.000000000000000e+00
-4.399999999999999e+00 3.000000000000000e-01 0.000000000000000e+00
-4.300000000000000e+00 3.000000000000000e-01 0.000000000000000e+00
-4.200000000000001e+00 3.000000000000000e-01 0.000000000000000e+00
-4.100000000000001e+00 3.000000000000000e-01 0.000000000000000e+00
-4.000000000000000e+00 3.000000000000000e-01 0.000000000000000e+00
-4.000000000000000e+00 3.000000000000000e-01 0.000000000000000e+00
-3.871428571428000e+00 3.000000000000000e-01 0.000000000000000e+00
-3.742857142856000e+00 3.000000000000000e-01 0.000000000000000e+00
-3.614285714284000e+00 3.000000000000000e-01 0.000000000000000e+00
-3.485714285712000e+00 3.000000000000000e-01 0.000000000000000e+00
-3.357142857140000e+00 3.000000000000000e-01 0.000000000000000e+00
-3.357142857140000e+00 3.000000000000000e-01 0.000000000000000e+00
-3.285714285712000e+00 3.000000000000000e-01 0.000000000000000e+00
-3.214285714284001e+00 3.000000000000000e-01 0.000000000000000e+00
-3.142857142856000e+00 3.000000000000000e-01 0.000000000000000e+00
-3.071428571428000e+00 3.000000000000000e-01 0.000000000000000e+00
-3.000000000000000e+00 3.000000000000000e-01 0.000000000000000e+00
-3.000000000000000e+00 3.000000000000000e-01 0.000000000000000e+00
-2.842857142858000e+00 3.000000000000000e-01 0.000000000000000e+00
-2.685714285716000e+00 3.000000000000000e-01 0.000000000000000e+00
-2.528571428574000e+00 3.000000000000000e-01 0.000000000000000e+00
-2.371428571432000e+00 3.000000000000000e-01 0.000000000000000e+00
-2.214285714290000e+00 3.000000000000000e-01 0.000000000000000e+00
-2.214285714290000e+00 3.000000000000000e-01 0.000000000000000e+00
-2.171428571432000e+00 2.999999999999999e-01 0.000000000000000e+00
-2.128571428574000e+00 3.000000000000000e-01 0.000000000000000e+00
-2.085714285716000e+00 3.000000000000000e-01 0.000000000000000e+00
-2.042857142858000e+00 3.000000000000000e-01 0.000000000000000e+00
-2.000000000000000e+00 3.000000000000000e-01 0.000000000000000e+00
-2.000000000000000e+00 3.000000000000000e-01 0.000000000000000e+00
-1.814285714286000e+00 3.000000000000000e-01 0.000000000000000e+00
-1.628571428572000e+00 3.000000000000000e-01 0.000000000000000e+00
-1.442857142858000e+00 3.000000000000000e-01 0.000000000000000e+00
-1.257142857144000e+00 3.000000000000000e-01 0.000000000000000e+00
-1.071428571430000e+00 3.000000000000000e-01 0.000000000000000e+00
-1.000000000000000e+00 3.000000000000000e-01 0.000000000000000e+00
-7.999999999999999e-01 3.000000000000000e-01 0.000000000000000e+00
-5.999999999999999e-01 3.000000000000000e-01 0.000000000000000e+00
-4.000000000000000e-01 3.000000000000000e-01 0.000000000000000e+00
-2.000000000000000e-01 3.000000000000000e-01 0.000000000000000e+00
-6.938893903907228e-17 3.000000000000000e-01 0.000000000000000e+00
2.775557561562891e-17 3.000000000000000e-01 0.000000000000000e+00
1.428571428572004e-02 3.000000000000000e-01 0.000000000000000e+00
2.857142857144009e-02 3.000000000000000e-01 0.000000000000000e+00
4.285714285715996e-02 3.000000000000000e-01 0.000000000000000e+00
5.714285714287998e-02 3.000000000000000e-01 0.000000000000000e+00
7.142857142860000e-02 3.000000000000000e-01 0.000000000000000e+00
-1.071428571430000e+00 3.000000000000000e-01 0.000000000000000e+00
-1.057142857144000e+00 3.000000000000000e-01 0.000000000000000e+00
-1.042857142858000e+00 3.000000000000000e-01 0.000000000000000e+00
-1.028571428572000e+00 3.000000000000000e-01 0.000000000000000e+00
-1.014285714286000e+00 3.000000000000000e-01 0.000000000000000e+00
-1.000000000000000e+00 3.000000000000000e-01 0.000000000000000e+00
9.999999999999999e-01 3.000000000000000e-01 0.000000000000000e+00
1.042857142858000e+00 3.000000000000000e-01 0.000000000000000e+00
1.085714285716000e+00 3.000000000000000e-01 0.000000000000000e+00
1.128571428574000e+00 3.000000000000000e-01 0.000000000000000e+00
1.171428571432000e+00 3.000000000000000e-01 0.000000000000000e+00
1.214285714290000e+00 3.000000000000000e-01 0.000000000000000e+00
7.142857142860000e-02 3.000000000000000e-01 0.000000000000000e+00
2.571428571428799e-01 3.000000000000000e-01 0.000000000000000e+00
4.428571428571599e-01 3.000000000000000e-01 0.000000000000000e+00
6.285714285714400e-01 3.000000000000000e-01 0.000000000000000e+00
8.142857142857198e-01 3.000000000000000e-01 0.000000000000000e+00
9.999999999999999e-01 3.000000000000000e-01 0.000000000000000e+00
1.214285714290000e+00 3.000000000000000e-01 0.000000000000000e+00
1.371428571432000e+00 3.000000000000000e-01 0.000000000000000e+00
1.528571428574000e+00 3.000000000000000e-01 0.000000000000000e+00
1.685714285716000e+00 3.000000000000000e-01 0.000000000000000e+00
1.842857142858000e+00 3.000000000000000e-01 0.000000000000000e+00
2.000000000000000e+00 2.999999999999999e-01 0.000000000000000e+00
2.000000000000000e+00 2.999999999999999e-01 0.000000000000000e+00
2.071428571428001e+00 3.000000000000000e-01 0.000000000000000e+00
2.142857142856001e+00 3.000000000000000e-01 0.000000000000000e+00
2.214285714284000e+00 3.000000000000000e-01 0.000000000000000e+00
2.285714285712000e+00 2.999999999999999e-01 0.000000000000000e+00
2.357142857140000e+00 3.000000000000000e-01 0.000000000000000e+00
        </DataArray>
      </Points>

      <Cells>
        <DataArray type="Int32" Name="connectivity" format="ascii">
0 1 2 3 4 5 6 7 8 9 10 11 12 13 14 15 16 17 18 19 20 21 22 23 24 25 26 27 28 29 30 31 32 33 34 35 36 37 38 39 40 41 42 43 44 45 46 47 48 49 50 51 52 53 54 55 56 57 58 59 60 61 62 63 64 65 66 67 68 69 70 71 72 73 74 75 76 77 
        </DataArray>
        <DataArray type="Int32" Name="offsets" format="ascii">
6 12 18 24 30 36 42 48 54 60 66 72 78 
        </DataArray>
        <DataArray type="UInt8" Name="types" format="ascii">
4 4 4 4 4 4 4 4 4 4 4 4 4 
        </DataArray>
      </Cells>

  <PointData>
        <DataArray type="Float64" Name="displacement" NumberOfComponents="3" format="ascii">
-9.554496133814538e-04 -7.845519812144097e-05 1.462327025833943e-02
-1.207321198054778e-03 -1.050003310908987e-04 2.144790579930839e-02
-1.501025834106606e-03 -1.406018235771134e-04 2.889053745699694e-02
-1.844446252211362e-03 -1.856910637755838e-04 3.697695040893990e-02
-2.245465183047024e-03 -2.406994398820861e-04 4.573292983267212e-02
-2.711965357288015e-03 -3.060583400918415e-04 5.518426090572841e-02
-2.711965357288015e-03 -3.060583400918415e-04 5.518426090572841e-02
-3.420654543438317e-03 -4.059943908928387e-04 6.839921032991925e-02
-4.267372545816883e-03 -5.246704599682905e-04 8.286104597934554e-02
-5.268873039822708e-03 -6.630034044449729e-04 9.862457075320009e-02
-6.441909700857007e-03 -8.219100814499947e-04 1.157445875506757e-01
-7.803236204320996e-03 -1.002307348110354e-03 1.342758992709653e-01
-7.803236204320996e-03 -1.002307348110354e-03 1.342758992709653e-01
-8.634973418713443e-03 -1.111219322130097e-03 1.451057717182457e-01
-9.507700565123844e-03 -1.225239515631915e-03 1.562018288177251e-01
-1.042278420361553e-02 -1.344374636659762e-03 1.675657748967287e-01
-1.138159089425006e-02 -1.468631393257647e-03 1.791993142825824e-01
-1.238548719708898e-02 -1.598016493469523e-03 1.911041513026115e-01
-1.238548719708943e-02 -1.598016493469578e-03 1.911041513026115e-01
-1.475950890628708e-02 -1.900748540698494e-03 2.182581593441043e-01
-1.737292962079762e-02 -2.228405665204491e-03 2.467516445566313e-01
-2.024030047215897e-02 -2.581059294239574e-03 2.766027546175550e-01
-2.337617259191260e-02 -2.958780855055909e-03 3.078296372042378e-01
-2.679509711160000e-02 -3.361641774905666e-03 3.404504399940423e-01
-2.679509711160000e-02 -3.361641774905666e-03 3.404504399940423e-01
-2.777462855442447e-02 -3.475674334776413e-03 3.495716312998599e-01
-2.876857633999430e-02 -3.591159906825236e-03 3.587585703267617e-01
-2.977703518780039e-02 -3.708097572993230e-03 3.680112419263766e-01
-3.080009981733101e-02 -3.826486415221431e-03 3.773296309503335e-01
-3.183786494808061e-02 -3.946325515450988e-03 3.867137222502612e-01
-3.183786494808061e-02 -3.946325515451043e-03 3.867137222502612e-01
-3.650703032755320e-02 -4.482364423902041e-03 4.281369746370358e-01
-4.146172443367835e-02 -5.045544012924341e-03 4.707924526801188e-01
-4.670965462649423e-02 -5.635789579726103e-03 5.146789237509424e-01
-5.225852826603949e-02 -6.253026421515540e-03 5.597951552209390e-01
-5.811605271235321e-02 -6.897179835500755e-03 6.061399144615414e-01
-6.044418401983642e-02 -7.151599526229069e-03 6.242575479065260e-01
-6.712131523527398e-02 -7.879861556580769e-03 6.755849230776677e-01
-7.403156697781133e-02 -8.631302688712872e-03 7.277819734844400e-01
-8.117461172017448e-02 -9.405626165273573e-03 7.808339479996113e-01
-8.855012193508999e-02 -1.020253522891135e-02 8.347260954959502e-01
-9.615777009528416e-02 -1.102173312227417e-02 8.894436648462251e-01
-9.615777009528416e-02 -1.102173312227422e-02 8.894436648462252e-01
-9.671004771114622e-02 -1.108109230569709e-02 8.933832579331776e-01
-9.726350791386140e-02 -1.114056358542309e-02 8.973269817194910e-01
-9.781815058406836e-02 -1.120014685330462e-02 9.012748308293901e-01
-9.837397560240585e-02 -1.125984200119384e-02 9.052267998870998e-01
-9.893098284951268e-02 -1.131964892094300e-02 9.091828835168448e-01
-5.811605271235321e-02 -6.897179835500755e-03 6.061399144615414e-01
-5.857929613467827e-02 -6.947823575177037e-03 6.097543841370818e-01
-5.904373109595062e-02 -6.998587522235811e-03 6.133733876951258e-01
-5.950935747680863e-02 -7.049471568529253e-03 6.169969197598979e-01
-5.997617515789067e-02 -7.100475605909484e-03 6.206249749556231e-01
-6.044418401983642e-02 -7.151599526229069e-03 6.242575479065260e-01
-1.365241894554214e-01 -1.537575224487858e-02 1.171051908956522e+00
-1.383248935741479e-01 -1.557071983171648e-02 1.183358564466725e+00
-1.401314333097913e-01 -1.576635347110689e-02 1.195684553080814e+00
-1.419438142988770e-01 -1.596265076702424e-02 1.208029860434358e+00
-1.437620421779322e-01 -1.615960932344279e-02 1.220394472162923e+00
-1.455861225834809e-01 -1.635722674433704e-02 1.232778373902078e+00
-9.893098284951268e-02 -1.131964892094300e-02 9.091828835168448e-01
-1.062334278953480e-01 -1.210459583504808e-02 9.608230706484434e-01
-1.136435124326702e-01 -1.290287458998884e-02 1.012831235597387e+00
-1.211616951076655e-01 -1.371429022027065e-02 1.065206209524500e+00
-1.287884345665207e-01 -1.453864776039882e-02 1.117946823590603e+00
-1.365241894554216e-01 -1.537575224487864e-02 1.171051908956522e+00
-1.455861225834809e-01 -1.635722674433704e-02 1.232778373902078e+00
-1.522923604534854e-01 -1.708543226403514e-02 1.278243676623353e+00
-1.590156872237727e-01 -1.781849202174762e-02 1.323762301847724e+00
-1.657601166582590e-01 -1.855647741437072e-02 1.369347286681894e+00
-1.725296625208605e-01 -1.929945983880083e-02 1.415011668232569e+00
-1.793283385754931e-01 -2.004751069193411e-02 1.460768483606455e+00
-1.793283385754929e-01 -2.004751069193411e-02 1.460768483606455e+00
-1.824293613046788e-01 -2.038922863157100e-02 1.481601118874492e+00
-1.855376089086762e-01 -2.073201522383883e-02 1.502456770028378e+00
-1.886534583375155e-01 -2.107587717393083e-02 1.523336661439517e+00
-1.917772865412259e-01 -2.142082118704008e-02 1.544242017479311e+00
-1.949094704698382e-01 -2.176685396835981e-02 1.565174062519166e+00
        </DataArray>
        <DataArray type="Float64" Name="lambda" NumberOfComponents="3" format="ascii">
-1.365900062562950e-03 2.116898636919710e-05 -1.248134732175909e-03
-9.149538936412245e-04 1.155330418084543e-05 -5.779853065887488e-04
-5.309448825570462e-04 3.712688318400496e-06 -2.980460762637557e-05
-2.138730293104157e-04 -2.352861218137709e-06 3.964073647112090e-04
3.626166609866759e-05 -6.643344428769194e-06 7.006506104240062e-04
2.194592036702033e-04 -9.158761313493951e-06 8.829251295120155e-04
2.194592036702033e-04 -9.158761313493951e-06 8.829251295120155e-04
3.566422547461453e-04 -9.784608012926446e-06 9.380587292171157e-04
3.831740857223006e-04 -7.476161398078882e-06 7.915705563365905e-04
2.990546965986694e-04 -2.233421468951260e-06 4.434606108704402e-04
1.042840873752515e-04 5.943611774456424e-06 -1.062711071813354e-04
-2.011377419479530e-04 1.705493833214417e-05 -8.576245978187363e-04
-2.011377419479530e-04 1.705493833214417e-05 -8.576245978187363e-04
-1.247962269707600e-04 1.141651966230720e-05 -5.067920819307722e-04
-5.681713906300434e-05 6.499834553834816e-06 -1.997424281906781e-04
2.799521775313844e-06 2.304883006727016e-06 6.352436340154570e-05
5.405375554419465e-05 -1.168334979016201e-06 2.830082928458992e-04
9.694556224363804e-05 -3.919819403394839e-06 4.587093601423826e-04
9.694556224363800e-05 -3.919819403394836e-06 4.587093601423824e-04
1.618717936981076e-04 -7.432583001029006e-06 6.911360334344647e-04
1.863238781362941e-04 -7.452156161640817e-06 7.116536539297762e-04
1.703018155581975e-04 -3.978538885230269e-06 5.202622216283173e-04
1.138056059638179e-04 2.988268828202639e-06 1.169617365300877e-04
1.683524935315513e-05 1.344826697865791e-05 -4.982478013649126e-04
1.683524935315513e-05 1.344826697865791e-05 -4.982478013649126e-04
1.589581894179913e-05 1.070531860987012e-05 -3.512224129131741e-04
1.526008086060453e-05 8.167907380257414e-06 -2.150000257873019e-04
1.492803510957134e-05 5.836033289819803e-06 -8.958063998729606e-05
1.489968168869955e-05 3.709696338557286e-06 2.503574448684345e-05
1.517502059798916e-05 1.788896526469861e-06 1.288491276351166e-04
1.517502059798915e-05 1.788896526469866e-06 1.288491276351163e-04
1.987748946439097e-05 -4.159473495354701e-06 4.538724392850294e-04
3.028262541913345e-05 -6.248312792835456e-06 5.760393927135241e-04
4.639042846221661e-05 -4.477621365972399e-06 4.953499879206002e-04
6.820089859364045e-05 1.152600785234467e-06 2.118042249062579e-04
9.571403581340496e-05 1.064235366078514e-05 -2.745978963295025e-04
6.567380669827713e-05 7.107264897386292e-06 -1.050462090617607e-04
2.441361851680793e-06 -3.705334173403019e-07 2.551754491207333e-04
-3.002026684380305e-05 -4.281352456686622e-06 4.466262729664701e-04
-3.171107938817439e-05 -4.625192220652671e-06 4.693062624754500e-04
-2.631075781433214e-06 -1.402052709238448e-06 3.232154176476727e-04
5.721974397642043e-05 5.388066077556042e-06 8.353738483138620e-06
5.721974397642045e-05 5.388066077556045e-06 8.353738483138498e-06
6.267225723021498e-05 6.009566116232190e-06 -2.059444909763426e-05
6.828176444396431e-05 6.649265028762333e-06 -5.040371236379938e-05
7.404826561766838e-05 7.307162815146467e-06 -8.107405131535668e-05
7.997176075132727e-05 7.983259475384599e-06 -1.126054659523064e-04
8.605224984494094e-05 8.677555009476727e-06 -1.449979562746484e-04
9.571403581340497e-05 1.064235366078515e-05 -2.745978963295029e-04
8.939200207045755e-05 9.898938160395960e-06 -2.389654075051023e-04
8.322696228747103e-05 9.173721533861479e-06 -2.041939943661278e-04
7.721891646444546e-05 8.466703781181707e-06 -1.702836569125794e-04
7.136786460138083e-05 7.777884902356645e-06 -1.372343951444570e-04
6.567380669827713e-05 7.107264897386292e-06 -1.050462090617607e-04
-1.697189888251433e-05 1.825345152516123e-07 2.461292524276865e-04
-6.213655839609488e-06 1.285653434774435e-06 1.987778394533575e-04
5.913399299218462e-06 2.520701482696394e-06 1.456555348914131e-04
1.940926653396949e-05 3.887678659017488e-06 8.676233874185352e-05
3.427394586464362e-05 5.386584963737717e-06 2.209825100467854e-05
5.050743729124086e-05 7.017420396857086e-06 -4.833672832011190e-05
8.605224984494094e-05 8.677555009476727e-06 -1.449979562746484e-04
1.404092138795317e-05 2.023879199840427e-06 1.499565250809116e-04
-3.226715771328623e-05 -2.152460754400234e-06 3.365464866289251e-04
-5.287198745877730e-05 -3.851464853245258e-06 4.147719283693921e-04
-4.777356784852001e-05 -3.073133096694643e-06 3.846328503023127e-04
-1.697189888251434e-05 1.825345152516102e-07 2.461292524276867e-04
5.050743729124086e-05 7.017420396857086e-06 -4.833672832011190e-05
2.736322397486663e-06 2.523690494822985e-06 1.358379151622550e-04
-3.134643888893555e-05 -6.218612232215728e-07 2.656378894601541e-04
-5.174084656802576e-05 -2.419234757276590e-06 3.410631945735853e-04
-5.844690063978398e-05 -2.868430107342066e-06 3.621138305025487e-04
-5.146460110421020e-05 -1.969447273418000e-06 3.287897972470442e-04
-5.146460110421017e-05 -1.969447273417995e-06 3.287897972470441e-04
-4.376575301539171e-05 -1.115139974037007e-06 2.956674121526677e-04
-3.323873269366783e-05 1.771653691064841e-08 2.513105912764337e-04
-1.988354013903852e-05 1.429122259424973e-06 1.957193346183421e-04
-3.700175351503776e-06 3.119077193505967e-06 1.288936421783929e-04
1.531136166893641e-05 5.087581339153629e-06 5.083351395658595e-05
        </DataArray>
        <DataArray type="Int32" Name="uid_0_pair_beam_id" format="ascii">
10
10
10
10
10
10
10
10
10
10
10
10
11
11
11
11
11
11
11
11
11
11
11
11
12
12
12
12
12
12
12
12
12
12
12
12
13
13
13
13
13
13
13
13
13
13
13
13
13
13
13
13
13
13
14
14
14
14
14
14
14
14
14
14
14
14
15
15
15
15
15
15
15
15
15
15
15
15
        </DataArray>
        <DataArray type="Int32" Name="uid_1_pair_solid_id" format="ascii">
0
0
0
0
0
0
1
1
1
1
1
1
1
1
1
1
1
1
2
2
2
2
2
2
2
2
2
2
2
2
3
3
3
3
3
3
4
4
4
4
4
4
5
5
5
5
5
5
3
3
3
3
3
3
6
6
6
6
6
6
5
5
5
5
5
5
6
6
6
6
6
6
7
7
7
7
7
7
        </DataArray>
  </PointData>
  <CellData>
        <DataArray type="Int32" Name="uid_0_pair_beam_id" format="ascii">
10
10
11
11
12
12
13
13
13
14
14
15
15
        </DataArray>
        <DataArray type="Int32" Name="uid_1_pair_solid_id" format="ascii">
0
1
1
2
2
3
4
5
3
6
5
6
7
        </DataArray>
      </CellData>

    </Piece>
  </UnstructuredGrid>
</VTKFile>
