<?xml version="1.0" ?> 
<!-- 
# vtk DataFile Version 3.0
-->
<VTKFile type="UnstructuredGrid" version="0.1" compressor="vtkZLibDataCompressor" byte_order="LittleEndian">
  <UnstructuredGrid>
    <FieldData>
      <DataArray type="Float64" Name="TIME" NumberOfTuples="1" format="ascii">
1.000000000000000e+00 
      </DataArray>
    </FieldData>

    <Piece NumberOfPoints="12" NumberOfCells="2" >
      <Points>
        <DataArray type="Float64" NumberOfComponents="3" format="ascii">
2.357142857140000e+00 3.000000000000000e-01 0.000000000000000e+00
2.485714285712000e+00 3.000000000000000e-01 0.000000000000000e+00
2.614285714284000e+00 3.000000000000000e-01 0.000000000000000e+00
2.742857142856000e+00 3.000000000000000e-01 0.000000000000000e+00
2.871428571428000e+00 3.000000000000000e-01 0.000000000000000e+00
3.000000000000000e+00 3.000000000000000e-01 0.000000000000000e+00
3.000000000000000e+00 3.000000000000000e-01 0.000000000000000e+00
3.100000000000000e+00 3.000000000000000e-01 0.000000000000000e+00
3.200000000000000e+00 3.000000000000000e-01 0.000000000000000e+00
3.300000000000001e+00 3.000000000000000e-01 0.000000000000000e+00
3.399999999999999e+00 2.999999999999999e-01 0.000000000000000e+00
3.500000000000000e+00 3.000000000000000e-01 0.000000000000000e+00
        </DataArray>
      </Points>

      <Cells>
        <DataArray type="Int32" Name="connectivity" format="ascii">
0 1 2 3 4 5 6 7 8 9 10 11 
        </DataArray>
        <DataArray type="Int32" Name="offsets" format="ascii">
6 12 
        </DataArray>
        <DataArray type="UInt8" Name="types" format="ascii">
4 4 
        </DataArray>
      </Cells>

  <PointData>
        <DataArray type="Float64" Name="displacement" NumberOfComponents="3" format="ascii">
-1.949094704698382e-01 -2.176685396835981e-02 1.565174062519166e+00
-2.005444963866330e-01 -2.239069983298503e-02 1.602840188471497e+00
-2.061623887834467e-01 -2.301476648147055e-02 1.640447318649719e+00
-2.117694018119236e-01 -2.363937625839668e-02 1.678015888920983e+00
-2.173717896237104e-01 -2.426485150834329e-02 1.715566335152441e+00
-2.229758063704530e-01 -2.489151457589062e-02 1.753119093211244e+00
-2.229758063704526e-01 -2.489151457589067e-02 1.753119093211244e+00
-2.273396158117520e-01 -2.537994673890748e-02 1.782341474169040e+00
-2.317111366593698e-01 -2.586944412238074e-02 1.811587231307501e+00
-2.360933115388395e-01 -2.636015839186734e-02 1.840865979856304e+00
-2.404890830756936e-01 -2.685224121292418e-02 1.870187335045123e+00
-2.449013938954683e-01 -2.734584425110809e-02 1.899560912103633e+00
        </DataArray>
        <DataArray type="Float64" Name="lambda" NumberOfComponents="3" format="ascii">
1.531136166893641e-05 5.087581339153629e-06 5.083351395658595e-05
-1.080280341390323e-05 2.576158332657733e-06 1.428360414277078e-04
-3.104437176749011e-05 6.557335416927253e-07 2.138338543281827e-04
-4.541334339182425e-05 -6.736930337413925e-07 2.638269526580107e-04
-5.390971828690564e-05 -1.412121393644622e-06 2.928153364171919e-04
-5.653349645273428e-05 -1.559551538016961e-06 3.007990056057262e-04
-5.653349645273428e-05 -1.559551538016961e-06 3.007990056057262e-04
-5.451414592940608e-05 -1.265628069200883e-06 2.924867481109942e-04
-4.894223689088251e-05 -6.141871613631256e-07 2.714679348884531e-04
-3.981776933716354e-05 3.947711854963126e-07 2.377425659381027e-04
-2.714074326824920e-05 1.761246971377431e-06 1.913106412599431e-04
-1.091115868413945e-05 3.485240196280230e-06 1.321721608539742e-04
        </DataArray>
        <DataArray type="Int32" Name="uid_0_pair_beam_id" format="ascii">
16
16
16
16
16
16
16
16
16
16
16
16
        </DataArray>
        <DataArray type="Int32" Name="uid_1_pair_solid_id" format="ascii">
7
7
7
7
7
7
8
8
8
8
8
8
        </DataArray>
  </PointData>
  <CellData>
        <DataArray type="Int32" Name="uid_0_pair_beam_id" format="ascii">
16
16
        </DataArray>
        <DataArray type="Int32" Name="uid_1_pair_solid_id" format="ascii">
7
8
        </DataArray>
      </CellData>

    </Piece>
  </UnstructuredGrid>
</VTKFile>
