<?xml version="1.0" ?> 
<!-- 
# vtk DataFile Version 3.0
-->
<VTKFile type="UnstructuredGrid" version="0.1" compressor="vtkZLibDataCompressor" byte_order="LittleEndian">
  <UnstructuredGrid>
    <FieldData>
      <DataArray type="Float64" Name="TIME" NumberOfTuples="1" format="ascii">
5.000000000000000e-01 
      </DataArray>
    </FieldData>

    <Piece NumberOfPoints="78" NumberOfCells="13" >
      <Points>
        <DataArray type="Float64" NumberOfComponents="3" format="ascii">
-4.000000000000000e+00 3.000000000000000e-01 0.000000000000000e+00
-3.871428571428000e+00 3.000000000000000e-01 0.000000000000000e+00
-3.742857142856000e+00 3.000000000000000e-01 0.000000000000000e+00
-3.614285714284000e+00 3.000000000000000e-01 0.000000000000000e+00
-3.485714285712000e+00 3.000000000000000e-01 0.000000000000000e+00
-3.357142857140000e+00 3.000000000000000e-01 0.000000000000000e+00
-4.500000000000000e+00 3.000000000000000e-01 0.000000000000000e+00
-4.399999999999999e+00 3.000000000000000e-01 0.000000000000000e+00
-4.300000000000000e+00 3.000000000000000e-01 0.000000000000000e+00
-4.200000000000001e+00 3.000000000000000e-01 0.000000000000000e+00
-4.100000000000001e+00 3.000000000000000e-01 0.000000000000000e+00
-4.000000000000000e+00 3.000000000000000e-01 0.000000000000000e+00
-3.000000000000000e+00 3.000000000000000e-01 0.000000000000000e+00
-2.842857142858000e+00 3.000000000000000e-01 0.000000000000000e+00
-2.685714285716000e+00 3.000000000000000e-01 0.000000000000000e+00
-2.528571428574000e+00 3.000000000000000e-01 0.000000000000000e+00
-2.371428571432000e+00 3.000000000000000e-01 0.000000000000000e+00
-2.214285714290000e+00 3.000000000000000e-01 0.000000000000000e+00
-3.357142857140000e+00 3.000000000000000e-01 0.000000000000000e+00
-3.285714285712000e+00 3.000000000000000e-01 0.000000000000000e+00
-3.214285714284001e+00 3.000000000000000e-01 0.000000000000000e+00
-3.142857142856000e+00 3.000000000000000e-01 0.000000000000000e+00
-3.071428571428000e+00 3.000000000000000e-01 0.000000000000000e+00
-3.000000000000000e+00 3.000000000000000e-01 0.000000000000000e+00
-2.000000000000000e+00 3.000000000000000e-01 0.000000000000000e+00
-1.814285714286000e+00 3.000000000000000e-01 0.000000000000000e+00
-1.628571428572000e+00 3.000000000000000e-01 0.000000000000000e+00
-1.442857142858000e+00 3.000000000000000e-01 0.000000000000000e+00
-1.257142857144000e+00 3.000000000000000e-01 0.000000000000000e+00
-1.071428571430000e+00 3.000000000000000e-01 0.000000000000000e+00
-2.214285714290000e+00 3.000000000000000e-01 0.000000000000000e+00
-2.171428571432000e+00 2.999999999999999e-01 0.000000000000000e+00
-2.128571428574000e+00 3.000000000000000e-01 0.000000000000000e+00
-2.085714285716000e+00 3.000000000000000e-01 0.000000000000000e+00
-2.042857142858000e+00 3.000000000000000e-01 0.000000000000000e+00
-2.000000000000000e+00 3.000000000000000e-01 0.000000000000000e+00
-1.071428571430000e+00 3.000000000000000e-01 0.000000000000000e+00
-1.057142857144000e+00 3.000000000000000e-01 0.000000000000000e+00
-1.042857142858000e+00 3.000000000000000e-01 0.000000000000000e+00
-1.028571428572000e+00 3.000000000000000e-01 0.000000000000000e+00
-1.014285714286000e+00 3.000000000000000e-01 0.000000000000000e+00
-1.000000000000000e+00 3.000000000000000e-01 0.000000000000000e+00
2.775557561562891e-17 3.000000000000000e-01 0.000000000000000e+00
1.428571428572004e-02 3.000000000000000e-01 0.000000000000000e+00
2.857142857144009e-02 3.000000000000000e-01 0.000000000000000e+00
4.285714285715996e-02 3.000000000000000e-01 0.000000000000000e+00
5.714285714287998e-02 3.000000000000000e-01 0.000000000000000e+00
7.142857142860000e-02 3.000000000000000e-01 0.000000000000000e+00
-1.000000000000000e+00 3.000000000000000e-01 0.000000000000000e+00
-7.999999999999999e-01 3.000000000000000e-01 0.000000000000000e+00
-5.999999999999999e-01 3.000000000000000e-01 0.000000000000000e+00
-4.000000000000000e-01 3.000000000000000e-01 0.000000000000000e+00
-2.000000000000000e-01 3.000000000000000e-01 0.000000000000000e+00
-6.938893903907228e-17 3.000000000000000e-01 0.000000000000000e+00
9.999999999999999e-01 3.000000000000000e-01 0.000000000000000e+00
1.042857142858000e+00 3.000000000000000e-01 0.000000000000000e+00
1.085714285716000e+00 3.000000000000000e-01 0.000000000000000e+00
1.128571428574000e+00 3.000000000000000e-01 0.000000000000000e+00
1.171428571432000e+00 3.000000000000000e-01 0.000000000000000e+00
1.214285714290000e+00 3.000000000000000e-01 0.000000000000000e+00
7.142857142860000e-02 3.000000000000000e-01 0.000000000000000e+00
2.571428571428799e-01 3.000000000000000e-01 0.000000000000000e+00
4.428571428571599e-01 3.000000000000000e-01 0.000000000000000e+00
6.285714285714400e-01 3.000000000000000e-01 0.000000000000000e+00
8.142857142857198e-01 3.000000000000000e-01 0.000000000000000e+00
9.999999999999999e-01 3.000000000000000e-01 0.000000000000000e+00
1.214285714290000e+00 3.000000000000000e-01 0.000000000000000e+00
1.371428571432000e+00 3.000000000000000e-01 0.000000000000000e+00
1.528571428574000e+00 3.000000000000000e-01 0.000000000000000e+00
1.685714285716000e+00 3.000000000000000e-01 0.000000000000000e+00
1.842857142858000e+00 3.000000000000000e-01 0.000000000000000e+00
2.000000000000000e+00 2.999999999999999e-01 0.000000000000000e+00
2.000000000000000e+00 2.999999999999999e-01 0.000000000000000e+00
2.071428571428001e+00 3.000000000000000e-01 0.000000000000000e+00
2.142857142856001e+00 3.000000000000000e-01 0.000000000000000e+00
2.214285714284000e+00 3.000000000000000e-01 0.000000000000000e+00
2.285714285712000e+00 2.999999999999999e-01 0.000000000000000e+00
2.357142857140000e+00 3.000000000000000e-01 0.000000000000000e+00
        </DataArray>
      </Points>

      <Cells>
        <DataArray type="Int32" Name="connectivity" format="ascii">
0 1 2 3 4 5 6 7 8 9 10 11 12 13 14 15 16 17 18 19 20 21 22 23 24 25 26 27 28 29 30 31 32 33 34 35 36 37 38 39 40 41 42 43 44 45 46 47 48 49 50 51 52 53 54 55 56 57 58 59 60 61 62 63 64 65 66 67 68 69 70 71 72 73 74 75 76 77 
        </DataArray>
        <DataArray type="Int32" Name="offsets" format="ascii">
6 12 18 24 30 36 42 48 54 60 66 72 78 
        </DataArray>
        <DataArray type="UInt8" Name="types" format="ascii">
4 4 4 4 4 4 4 4 4 4 4 4 4 
        </DataArray>
      </Cells>

  <PointData>
        <DataArray type="Float64" Name="displacement" NumberOfComponents="3" format="ascii">
-6.978249647193735e-04 -7.978281931741993e-05 2.800444337844097e-02
-8.804353064575388e-04 -1.058395214781349e-04 3.471805168734176e-02
-1.098871132295898e-03 -1.367988896802674e-04 4.207016558114327e-02
-1.357565907465830e-03 -1.729124333220700e-04 5.009069962267779e-02
-1.660953097197826e-03 -2.144316618019615e-04 5.880956837477765e-02
-2.013466166721489e-03 -2.616080845181390e-04 6.825668640027517e-02
-2.455072426856830e-04 -2.036355849316385e-05 7.407497394837549e-03
-3.105061928554420e-04 -2.733010775357592e-05 1.087501675458774e-02
-3.861514613037187e-04 -3.663697139666411e-05 1.465439600531790e-02
-4.745290268699520e-04 -4.840248649207179e-05 1.875971017453331e-02
-5.777248683953573e-04 -6.274499010922030e-05 2.320503428973924e-02
-6.978249647193735e-04 -7.978281931741993e-05 2.800444337844097e-02
-3.200741574479249e-03 -4.175475999330658e-04 9.725230232424283e-02
-3.816310036180770e-03 -4.968746911296340e-04 1.111179637807160e-01
-4.494530042213896e-03 -5.828023534103499e-04 1.256774841680713e-01
-5.239414942298293e-03 -6.753680152876695e-04 1.409427983227528e-01
-6.054978086151408e-03 -7.746091052743265e-04 1.569258410812042e-01
-6.945232823494241e-03 -8.805630518827212e-04 1.736385472798696e-01
-2.013466166721489e-03 -2.616080845181390e-04 6.825668640027517e-02
-2.228952056126499e-03 -2.901050356628465e-04 7.378074788363642e-02
-2.455045630473052e-03 -3.199439477022947e-04 7.944121936530552e-02
-2.692123800894564e-03 -3.511283357107708e-04 8.523922169769073e-02
-2.940563478518676e-03 -3.836617147629506e-04 9.117587573320038e-02
-3.200741574478805e-03 -4.175475999330658e-04 9.725230232424284e-02
-8.259235029952183e-03 -1.034453839360239e-03 1.973578056396647e-01
-9.476322534397452e-03 -1.175615243891148e-03 2.186059118901277e-01
-1.076857334706127e-02 -1.324011185523055e-03 2.404984761659610e-01
-1.213833654640895e-02 -1.479643122751340e-03 2.630378091569575e-01
-1.358796121090533e-02 -1.642512514071048e-03 2.862262215529097e-01
-1.511979641901662e-02 -1.812620817977395e-03 3.100660240436106e-01
-6.945232823494241e-03 -8.805630518827212e-04 1.736385472798696e-01
-7.200451116833317e-03 -9.105709298526388e-04 1.783141749441885e-01
-7.459431615182588e-03 -9.409639296612538e-04 1.830238862151385e-01
-7.722203187508381e-03 -9.717420692325618e-04 1.877677094899084e-01
-7.988794702775692e-03 -1.002905366490892e-03 1.925456731656874e-01
-8.259235029952627e-03 -1.034453839360239e-03 1.973578056396647e-01
-1.511979641901662e-02 -1.812620817977395e-03 3.100660240436106e-01
-1.524100813423335e-02 -1.826000486023716e-03 3.119261519644062e-01
-1.536253202801463e-02 -1.839412053165235e-03 3.137886470963773e-01
-1.548436818550569e-02 -1.852855497683437e-03 3.156535075174064e-01
-1.560651669185065e-02 -1.866330797860027e-03 3.175207313053762e-01
-1.572897763219472e-02 -1.879837931976158e-03 3.193903165381691e-01
-2.508271998267138e-02 -2.903149367420865e-03 4.560148381321305e-01
-2.522758136717979e-02 -2.918861198705991e-03 4.580471730151422e-01
-2.537276131611626e-02 -2.934603300196903e-03 4.600817309505213e-01
-2.551825991462559e-02 -2.950375650175308e-03 4.621185100161501e-01
-2.566407724785263e-02 -2.966178226922467e-03 4.641575082899113e-01
-2.581021340094228e-02 -2.982011008720031e-03 4.661987238496873e-01
-1.572897763219472e-02 -1.879837931976158e-03 3.193903165381691e-01
-1.747628404801005e-02 -2.072268210893680e-03 3.458113851174018e-01
-1.928507785350986e-02 -2.270874089529085e-03 3.726896458566761e-01
-2.115559268614986e-02 -2.475595972250111e-03 4.000198244657303e-01
-2.308806218338522e-02 -2.686374263424829e-03 4.277966466543023e-01
-2.508271998267138e-02 -2.903149367420921e-03 4.560148381321304e-01
-3.567566375423858e-02 -4.055854804204895e-03 6.013714934854865e-01
-3.614854124679323e-02 -4.107488761250555e-03 6.077280638006290e-01
-3.662299928504908e-02 -4.159301886885625e-03 6.140951131567789e-01
-3.709904193842939e-02 -4.211293718526909e-03 6.204726520157499e-01
-3.757667327635783e-02 -4.263463793591160e-03 6.268606908393560e-01
-3.805589736825699e-02 -4.315811649495127e-03 6.332592400894121e-01
-2.581021340094228e-02 -2.982011008720031e-03 4.661987238496873e-01
-2.772608481200994e-02 -3.189807775917541e-03 4.928452321595863e-01
-2.967023442239852e-02 -3.401128179634061e-03 5.196849119964181e-01
-3.164299336258281e-02 -3.615934579300151e-03 5.467186146418803e-01
-3.364469276303783e-02 -3.834189334346871e-03 5.739471913776705e-01
-3.567566375423858e-02 -4.055854804204895e-03 6.013714934854865e-01
-3.805589736825699e-02 -4.315811649495127e-03 6.332592400894121e-01
-3.981771731473960e-02 -4.508696129184087e-03 6.567506245744875e-01
-4.158380716924914e-02 -4.702834149896973e-03 6.802686637921826e-01
-4.335535203319618e-02 -4.898255097511961e-03 7.038210738404831e-01
-4.513353700798906e-02 -5.094988357906782e-03 7.274155708173747e-01
-4.691954719503677e-02 -5.293063316959556e-03 7.510598708208426e-01
-4.691954719503677e-02 -5.293063316959612e-03 7.510598708208427e-01
-4.773427739267877e-02 -5.383548874098809e-03 7.618258307224433e-01
-4.855098052340390e-02 -5.474320472922456e-03 7.726043993930162e-01
-4.936976788524072e-02 -5.565380873186476e-03 7.833963014848898e-01
-5.019075077621826e-02 -5.656732834646072e-03 7.942022616503914e-01
-5.101404049436509e-02 -5.748379117057278e-03 8.050230045418491e-01
        </DataArray>
        <DataArray type="Float64" Name="lambda" NumberOfComponents="3" format="ascii">
5.809486401697490e-05 -2.394483331818647e-06 4.430198788515731e-04
9.383533285361900e-05 -2.543350573542279e-06 4.666763008182236e-04
1.002928070317615e-04 -1.932331162132055e-06 3.907929981033751e-04
7.746728655140258e-05 -5.614250975879755e-07 2.153699707070278e-04
2.535877141254207e-05 1.569367620089960e-06 -5.959278137081844e-05
-5.603273838481998e-05 4.460046990901753e-06 -4.340952581301636e-04
-3.592650566047423e-04 5.408058693504013e-06 -5.952191448966281e-04
-2.403642641284527e-04 2.928181251322742e-06 -2.671405621383437e-04
-1.391778758281361e-04 9.079883276998385e-07 7.226316156187860e-07
-5.570589170379274e-05 -6.525200773646926e-07 2.083704363652588e-04
1.005168824457764e-05 -1.753343963870855e-06 3.558028521105770e-04
5.809486401697490e-05 -2.394483331818647e-06 4.430198788515731e-04
2.574923516108549e-05 -1.027362438259874e-06 2.283163043768302e-04
4.349243607657244e-05 -1.934446816789435e-06 3.438680829295448e-04
5.008844022021558e-05 -1.920357113462661e-06 3.519197282341721e-04
4.553724759201492e-05 -9.850933282795525e-07 2.524712402907121e-04
2.983885819197047e-05 8.713445387598913e-07 4.552261909916480e-05
2.993272020082213e-06 3.648956487655671e-06 -2.689261353404699e-04
-5.603273838481998e-05 4.460046990901753e-06 -4.340952581301636e-04
-3.507006401787564e-05 2.981914658023293e-06 -2.571914029644921e-04
-1.641052947981291e-05 1.694107548667900e-06 -1.024983191309568e-04
-5.413477063181857e-08 5.966256628355741e-07 2.998399337044187e-05
1.399912010966765e-05 -3.105309994736834e-07 1.402555345397042e-04
2.574923516108550e-05 -1.027362438259875e-06 2.283163043768303e-04
3.744704875599742e-06 4.931682103698483e-07 6.013089082228888e-05
5.675598491419529e-06 -1.111272313426207e-06 2.299843464990355e-04
8.794740214392899e-06 -1.665892281474435e-06 2.927463090182418e-04
1.310213004451985e-05 -1.170691693774838e-06 2.484167783799077e-04
1.859776798180038e-05 3.743294496725845e-07 9.699575458403334e-05
2.528165402623450e-05 2.969171148867832e-06 -1.615167623693813e-04
2.993272020082213e-06 3.648956487655671e-06 -2.689261353404699e-04
3.016999621187579e-06 2.905983625072619e-06 -1.917085355699373e-04
3.104006707292014e-06 2.218918366052511e-06 -1.201940330683951e-04
3.254293278395520e-06 1.587760710595346e-06 -5.438262783584329e-05
3.467859334498096e-06 1.012510658701125e-06 5.725680127718078e-06
3.744704875599743e-06 4.931682103698469e-07 6.013089082228902e-05
2.528165402623450e-05 2.969171148867834e-06 -1.615167623693815e-04
2.361758702071804e-05 2.762723988661118e-06 -1.421243964822925e-04
2.199500695192538e-05 2.561332271949099e-06 -1.232010441666630e-04
2.041391381985651e-05 2.364995998731779e-06 -1.047467054224931e-04
1.887430762451145e-05 2.173715169009156e-06 -8.676138024978284e-05
1.737618836589018e-05 1.987489782781231e-06 -6.924506864853204e-05
1.560287801904556e-05 1.514489830912362e-06 -8.601981616213513e-06
1.705033126772718e-05 1.687200932797470e-06 -2.438563358762080e-05
1.853927145313098e-05 1.864967478177079e-06 -4.063829913046930e-05
2.006969857525694e-05 2.047789467051187e-06 -5.735997824475891e-05
2.164161263410509e-05 2.235666899419795e-06 -7.455067093048974e-05
2.325501362967540e-05 2.428599775282902e-06 -9.221037718766175e-05
1.737618836589018e-05 1.987489782781231e-06 -6.924506864853204e-05
7.586471014425022e-07 -8.884405743481933e-08 1.267368687627241e-04
-7.727454565465802e-06 -1.174310972729732e-06 2.307921461715840e-04
-8.082116634834730e-06 -1.268910963103506e-06 2.429207635780478e-04
-3.053391066642742e-07 -3.726440285561408e-07 1.631227209821152e-04
1.560287801904555e-05 1.514489830912361e-06 -8.601981616213458e-06
-4.369525484428906e-06 3.636684247956716e-08 1.248117916432494e-04
-1.472618304777004e-06 3.429578816216935e-07 9.883859753099546e-05
1.792396455001426e-06 6.863431963429752e-07 6.968985030944680e-05
5.425518794906375e-06 1.066522786643412e-06 3.736554997860350e-05
9.426748714937848e-06 1.483496652523003e-06 1.865696538465523e-06
1.379608621509585e-05 1.937264793981751e-06 -3.680971001096719e-05
2.325501362967540e-05 2.428599775282902e-06 -9.221037718766175e-05
3.905621131545617e-06 5.683237281382125e-07 7.045371778947586e-05
-8.531529028929708e-06 -6.010375887144660e-07 1.734879821611358e-04
-1.405643685175057e-05 -1.079484175275133e-06 2.168924159273180e-04
-1.266910233691697e-05 -8.670160315437891e-07 2.006670190880226e-04
-4.369525484428911e-06 3.636684247956674e-08 1.248117916432494e-04
1.379608621509585e-05 1.937264793981751e-06 -3.680971001096719e-05
8.681586247840470e-07 6.849413399414343e-07 6.494315471862882e-05
-8.353953476502108e-06 -1.926883017119707e-07 1.367141241650055e-04
-1.387025008876261e-05 -6.956241309784638e-07 1.785031983281628e-04
-1.568073121199745e-05 -8.238661478580451e-07 1.903103772081008e-04
-1.378539684620664e-05 -5.774143523507146e-07 1.721356608048194e-04
-1.378539684620662e-05 -5.774143523507131e-07 1.721356608048193e-04
-1.169881825382017e-05 -3.415250858358773e-07 1.539630557345490e-04
-8.846575304200911e-06 -2.821974238199115e-08 1.295958442008352e-04
-5.228667997348846e-06 3.625016780109453e-07 9.903402620367786e-05
-8.450963332639722e-07 8.306391753429324e-07 6.227760174307700e-05
4.304139688053709e-06 1.376192749613970e-06 1.932657081903258e-05
        </DataArray>
        <DataArray type="Int32" Name="uid_0_pair_beam_id" format="ascii">
10
10
10
10
10
10
10
10
10
10
10
10
11
11
11
11
11
11
11
11
11
11
11
11
12
12
12
12
12
12
12
12
12
12
12
12
13
13
13
13
13
13
13
13
13
13
13
13
13
13
13
13
13
13
14
14
14
14
14
14
14
14
14
14
14
14
15
15
15
15
15
15
15
15
15
15
15
15
        </DataArray>
        <DataArray type="Int32" Name="uid_1_pair_solid_id" format="ascii">
1
1
1
1
1
1
0
0
0
0
0
0
2
2
2
2
2
2
1
1
1
1
1
1
3
3
3
3
3
3
2
2
2
2
2
2
3
3
3
3
3
3
5
5
5
5
5
5
4
4
4
4
4
4
6
6
6
6
6
6
5
5
5
5
5
5
6
6
6
6
6
6
7
7
7
7
7
7
        </DataArray>
  </PointData>
  <CellData>
        <DataArray type="Int32" Name="uid_0_pair_beam_id" format="ascii">
10
10
11
11
12
12
13
13
13
14
14
15
15
        </DataArray>
        <DataArray type="Int32" Name="uid_1_pair_solid_id" format="ascii">
1
0
2
1
3
2
3
5
4
6
5
6
7
        </DataArray>
      </CellData>

    </Piece>
  </UnstructuredGrid>
</VTKFile>
