<?xml version="1.0"?>
<VTKFile type="UnstructuredGrid" version="0.1" byte_order="LittleEndian">
<!--This file was created by meshio v5.3.5-->
<UnstructuredGrid>
<Piece NumberOfPoints="63" NumberOfCells="3">
<Points>
<DataArray type="Float64" Name="Points" NumberOfComponents="3" format="ascii">
0.00000000000e+00
0.00000000000e+00
0.00000000000e+00
0.00000000000e+00
1.00000000000e+00
0.00000000000e+00
0.00000000000e+00
0.00000000000e+00
1.00000000000e+00
0.00000000000e+00
1.00000000000e+00
1.00000000000e+00
1.00000000000e+00
0.00000000000e+00
0.00000000000e+00
1.00000000000e+00
1.00000000000e+00
0.00000000000e+00
1.00000000000e+00
0.00000000000e+00
1.00000000000e+00
1.00000000000e+00
1.00000000000e+00
1.00000000000e+00
2.00000000000e+00
0.00000000000e+00
0.00000000000e+00
2.00000000000e+00
1.00000000000e+00
0.00000000000e+00
2.00000000000e+00
0.00000000000e+00
1.00000000000e+00
2.00000000000e+00
1.00000000000e+00
1.00000000000e+00
3.00000000000e+00
0.00000000000e+00
0.00000000000e+00
3.00000000000e+00
1.00000000000e+00
0.00000000000e+00
3.00000000000e+00
0.00000000000e+00
1.00000000000e+00
3.00000000000e+00
1.00000000000e+00
1.00000000000e+00
5.00000000000e-01
0.00000000000e+00
0.00000000000e+00
1.00000000000e+00
5.00000000000e-01
0.00000000000e+00
5.00000000000e-01
1.00000000000e+00
0.00000000000e+00
0.00000000000e+00
5.00000000000e-01
0.00000000000e+00
5.00000000000e-01
0.00000000000e+00
1.00000000000e+00
1.00000000000e+00
5.00000000000e-01
1.00000000000e+00
5.00000000000e-01
1.00000000000e+00
1.00000000000e+00
0.00000000000e+00
5.00000000000e-01
1.00000000000e+00
0.00000000000e+00
0.00000000000e+00
5.00000000000e-01
1.00000000000e+00
0.00000000000e+00
5.00000000000e-01
1.00000000000e+00
1.00000000000e+00
5.00000000000e-01
0.00000000000e+00
1.00000000000e+00
5.00000000000e-01
0.00000000000e+00
5.00000000000e-01
5.00000000000e-01
1.00000000000e+00
5.00000000000e-01
5.00000000000e-01
5.00000000000e-01
0.00000000000e+00
5.00000000000e-01
5.00000000000e-01
1.00000000000e+00
5.00000000000e-01
5.00000000000e-01
5.00000000000e-01
0.00000000000e+00
5.00000000000e-01
5.00000000000e-01
1.00000000000e+00
5.00000000000e-01
5.00000000000e-01
5.00000000000e-01
1.50000000000e+00
0.00000000000e+00
0.00000000000e+00
2.00000000000e+00
5.00000000000e-01
0.00000000000e+00
1.50000000000e+00
1.00000000000e+00
0.00000000000e+00
1.50000000000e+00
0.00000000000e+00
1.00000000000e+00
2.00000000000e+00
5.00000000000e-01
1.00000000000e+00
1.50000000000e+00
1.00000000000e+00
1.00000000000e+00
2.00000000000e+00
0.00000000000e+00
5.00000000000e-01
2.00000000000e+00
1.00000000000e+00
5.00000000000e-01
2.00000000000e+00
5.00000000000e-01
5.00000000000e-01
1.50000000000e+00
0.00000000000e+00
5.00000000000e-01
1.50000000000e+00
1.00000000000e+00
5.00000000000e-01
1.50000000000e+00
5.00000000000e-01
0.00000000000e+00
1.50000000000e+00
5.00000000000e-01
1.00000000000e+00
1.50000000000e+00
5.00000000000e-01
5.00000000000e-01
2.50000000000e+00
0.00000000000e+00
0.00000000000e+00
3.00000000000e+00
5.00000000000e-01
0.00000000000e+00
2.50000000000e+00
1.00000000000e+00
0.00000000000e+00
2.50000000000e+00
0.00000000000e+00
1.00000000000e+00
3.00000000000e+00
5.00000000000e-01
1.00000000000e+00
2.50000000000e+00
1.00000000000e+00
1.00000000000e+00
3.00000000000e+00
0.00000000000e+00
5.00000000000e-01
3.00000000000e+00
1.00000000000e+00
5.00000000000e-01
3.00000000000e+00
5.00000000000e-01
5.00000000000e-01
2.50000000000e+00
0.00000000000e+00
5.00000000000e-01
2.50000000000e+00
1.00000000000e+00
5.00000000000e-01
2.50000000000e+00
5.00000000000e-01
0.00000000000e+00
2.50000000000e+00
5.00000000000e-01
1.00000000000e+00
2.50000000000e+00
5.00000000000e-01
5.00000000000e-01

</DataArray>
</Points>
<Cells>
<DataArray type="Int64" Name="connectivity" format="ascii">
0
4
5
1
2
6
7
3
16
17
18
19
20
21
22
23
24
25
26
27
28
29
30
31
32
33
34
4
8
9
5
6
10
11
7
35
36
37
17
38
39
40
21
25
41
42
26
29
43
44
45
46
47
48
8
12
13
9
10
14
15
11
49
50
51
36
52
53
54
39
41
55
56
42
43
57
58
59
60
61
62

</DataArray>
<DataArray type="Int64" Name="offsets" format="ascii">
27
54
81

</DataArray>
<DataArray type="Int64" Name="types" format="ascii">
29
29
29

</DataArray>
</Cells>
<PointData>
<DataArray type="Int64" Name="point_set_1" format="ascii">
1
1
1
1
0
0
0
0
0
0
0
0
0
0
0
0
0
0
0
1
0
0
0
1
1
0
0
1
1
0
0
0
0
0
0
0
0
0
0
0
0
0
0
0
0
0
0
0
0
0
0
0
0
0
0
0
0
0
0
0
0
0
0

</DataArray>
<DataArray type="Int64" Name="point_set_2" format="ascii">
0
0
0
0
0
0
0
0
0
0
0
0
1
1
1
1
0
0
0
0
0
0
0
0
0
0
0
0
0
0
0
0
0
0
0
0
0
0
0
0
0
0
0
0
0
0
0
0
0
0
1
0
0
1
0
1
1
1
0
0
0
0
0

</DataArray>
</PointData>
<CellData>
<DataArray type="Int64" Name="material" format="ascii">
1
1
2

</DataArray>
<DataArray type="Int64" Name="block_id" format="ascii">
1
1
2

</DataArray>
</CellData>
</Piece>
</UnstructuredGrid>
</VTKFile>
