<?xml version="1.0"?>
<VTKFile type="UnstructuredGrid" version="0.1" byte_order="LittleEndian">
<!--This file was created by meshio v5.3.5-->
<UnstructuredGrid>
<Piece NumberOfPoints="16" NumberOfCells="3">
<Points>
<DataArray type="Float64" Name="Points" NumberOfComponents="3" format="ascii">
0.00000000000e+00 0.00000000000e+00 0.00000000000e+00
0.00000000000e+00 1.00000000000e+00 0.00000000000e+00
0.00000000000e+00 0.00000000000e+00 1.00000000000e+00
0.00000000000e+00 1.00000000000e+00 1.00000000000e+00
1.00000000000e+00 0.00000000000e+00 0.00000000000e+00
1.00000000000e+00 1.00000000000e+00 0.00000000000e+00
1.00000000000e+00 0.00000000000e+00 1.00000000000e+00
1.00000000000e+00 1.00000000000e+00 1.00000000000e+00
2.00000000000e+00 0.00000000000e+00 0.00000000000e+00
2.00000000000e+00 1.00000000000e+00 0.00000000000e+00
2.00000000000e+00 0.00000000000e+00 1.00000000000e+00
2.00000000000e+00 1.00000000000e+00 1.00000000000e+00
3.00000000000e+00 0.00000000000e+00 0.00000000000e+00
3.00000000000e+00 1.00000000000e+00 0.00000000000e+00
3.00000000000e+00 0.00000000000e+00 1.00000000000e+00
3.00000000000e+00 1.00000000000e+00 1.00000000000e+00

</DataArray>
</Points>
<Cells>
<DataArray type="Int64" Name="connectivity" format="ascii">
0
4
5
1
2
6
7
3
4
8
9
5
6
10
11
7
8
12
13
9
10
14
15
11

</DataArray>
<DataArray type="Int64" Name="offsets" format="ascii">
8
16
24

</DataArray>
<DataArray type="Int64" Name="types" format="ascii">
12
12
12

</DataArray>
</Cells>
<PointData>
<DataArray type="Int64" Name="point_set_1" format="ascii">
1
1
1
1
0
0
0
0
0
0
0
0
0
0
0
0

</DataArray>
<DataArray type="Int64" Name="point_set_2" format="ascii">
0
0
0
0
0
0
0
0
0
0
0
0
1
1
1
1

</DataArray>
</PointData>
<CellData>
<DataArray type="Int64" Name="material" format="ascii">
1
1
2

</DataArray>
<DataArray type="Int64" Name="block_id" format="ascii">
1
1
2

</DataArray>
<DataArray type="Int64" Name="scalar_int" format="ascii">
0
1
2

</DataArray>
<DataArray type="Float64" Name="scalar_float" format="ascii">
2.00000000000e-01
1.20000000000e+00
2.20000000000e+00

</DataArray>
<DataArray type="Int64" Name="vector_int" NumberOfComponents="3" format="ascii">
0 0 0
0 1 0
0 0 1

</DataArray>
<DataArray type="Float64" Name="vector_float" NumberOfComponents="3" format="ascii">
2.00000000000e-01 2.00000000000e-01 2.00000000000e-01
2.00000000000e-01 1.20000000000e+00 2.00000000000e-01
2.00000000000e-01 2.00000000000e-01 1.20000000000e+00

</DataArray>
<DataArray type="Int64" Name="symmetric_tensor_int" NumberOfComponents="6" format="ascii">
1 2 3 4 5 6
2 3 4 5 6 7
3 4 5 6 7 8

</DataArray>
<DataArray type="Float64" Name="symmetric_tensor_float" NumberOfComponents="6" format="ascii">
1.00000000000e+00 2.00000000000e+00 3.00000000000e+00 4.00000000000e+00 5.00000000000e+00 6.00000000000e+00
1.01000000000e+00 2.01000000000e+00 3.01000000000e+00 4.01000000000e+00 5.01000000000e+00 6.01000000000e+00
1.02000000000e+00 2.02000000000e+00 3.02000000000e+00 4.02000000000e+00 5.02000000000e+00 6.02000000000e+00

</DataArray>
<DataArray type="Int64" Name="tensor_int" NumberOfComponents="9" format="ascii">
1 2 3 4 5 6 7 8 9
2 3 4 5 6 7 8 9 10
3 4 5 6 7 8 9 10 11

</DataArray>
<DataArray type="Float64" Name="tensor_float" NumberOfComponents="9" format="ascii">
1.00000000000e+00 2.00000000000e+00 3.00000000000e+00 4.00000000000e+00 5.00000000000e+00 6.00000000000e+00 7.00000000000e+00 8.00000000000e+00 9.00000000000e+00
1.01000000000e+00 2.01000000000e+00 3.01000000000e+00 4.01000000000e+00 5.01000000000e+00 6.01000000000e+00 7.01000000000e+00 8.01000000000e+00 9.01000000000e+00
1.02000000000e+00 2.02000000000e+00 3.02000000000e+00 4.02000000000e+00 5.02000000000e+00 6.02000000000e+00 7.02000000000e+00 8.02000000000e+00 9.02000000000e+00

</DataArray>
</CellData>
</Piece>
</UnstructuredGrid>
</VTKFile>
