<?xml version="1.0"?>
<VTKFile type="UnstructuredGrid" version="0.1" byte_order="LittleEndian">
<!--This file was created by meshio v5.3.5-->
<UnstructuredGrid>
<Piece NumberOfPoints="16" NumberOfCells="3">
<Points>
<DataArray type="Float64" Name="Points" NumberOfComponents="3" format="ascii">
0.00000000000e+00 0.00000000000e+00 0.00000000000e+00
0.00000000000e+00 1.00000000000e+00 0.00000000000e+00
0.00000000000e+00 0.00000000000e+00 1.00000000000e+00
0.00000000000e+00 1.00000000000e+00 1.00000000000e+00
1.00000000000e+00 0.00000000000e+00 0.00000000000e+00
1.00000000000e+00 1.00000000000e+00 0.00000000000e+00
1.00000000000e+00 0.00000000000e+00 1.00000000000e+00
1.00000000000e+00 1.00000000000e+00 1.00000000000e+00
2.00000000000e+00 0.00000000000e+00 0.00000000000e+00
2.00000000000e+00 1.00000000000e+00 0.00000000000e+00
2.00000000000e+00 0.00000000000e+00 1.00000000000e+00
2.00000000000e+00 1.00000000000e+00 1.00000000000e+00
3.00000000000e+00 0.00000000000e+00 0.00000000000e+00
3.00000000000e+00 1.00000000000e+00 0.00000000000e+00
3.00000000000e+00 0.00000000000e+00 1.00000000000e+00
3.00000000000e+00 1.00000000000e+00 1.00000000000e+00

</DataArray>
</Points>
<Cells>
<DataArray type="Int64" Name="connectivity" format="ascii">
0
4
5
1
2
6
7
3
4
8
9
5
6
10
11
7
8
12
13
9
10
14
15
11

</DataArray>
<DataArray type="Int64" Name="offsets" format="ascii">
8
16
24

</DataArray>
<DataArray type="Int64" Name="types" format="ascii">
12
12
12

</DataArray>
</Cells>
<PointData>
<DataArray type="Int64" Name="point_set_1" format="ascii">
1
1
1
1
0
0
0
0
0
0
0
0
0
0
0
0

</DataArray>
<DataArray type="Int64" Name="point_set_2" format="ascii">
0
0
0
0
0
0
0
0
0
0
0
0
1
1
1
1

</DataArray>
<DataArray type="Int64" Name="scalar_int" format="ascii">
0
1
2
3
4
5
6
7
8
9
10
11
12
13
14
15

</DataArray>
<DataArray type="Float64" Name="scalar_float" format="ascii">
0.00000000000e+00
1.00000000000e+00
2.00000000000e+00
3.00000000000e+00
4.00000000000e+00
5.00000000000e+00
6.00000000000e+00
7.00000000000e+00
8.00000000000e+00
9.00000000000e+00
1.00000000000e+01
1.10000000000e+01
1.20000000000e+01
1.30000000000e+01
1.40000000000e+01
1.50000000000e+01

</DataArray>
<DataArray type="Int64" Name="vector_int" NumberOfComponents="3" format="ascii">
0 0 0
0 1 0
0 0 1
0 1 1
1 0 0
1 1 0
1 0 1
1 1 1
2 0 0
2 1 0
2 0 1
2 1 1
3 0 0
3 1 0
3 0 1
3 1 1

</DataArray>
<DataArray type="Float64" Name="vector_float" NumberOfComponents="3" format="ascii">
0.00000000000e+00 0.00000000000e+00 0.00000000000e+00
0.00000000000e+00 1.00000000000e+00 0.00000000000e+00
0.00000000000e+00 0.00000000000e+00 1.00000000000e+00
0.00000000000e+00 1.00000000000e+00 1.00000000000e+00
1.00000000000e+00 0.00000000000e+00 0.00000000000e+00
1.00000000000e+00 1.00000000000e+00 0.00000000000e+00
1.00000000000e+00 0.00000000000e+00 1.00000000000e+00
1.00000000000e+00 1.00000000000e+00 1.00000000000e+00
2.00000000000e+00 0.00000000000e+00 0.00000000000e+00
2.00000000000e+00 1.00000000000e+00 0.00000000000e+00
2.00000000000e+00 0.00000000000e+00 1.00000000000e+00
2.00000000000e+00 1.00000000000e+00 1.00000000000e+00
3.00000000000e+00 0.00000000000e+00 0.00000000000e+00
3.00000000000e+00 1.00000000000e+00 0.00000000000e+00
3.00000000000e+00 0.00000000000e+00 1.00000000000e+00
3.00000000000e+00 1.00000000000e+00 1.00000000000e+00

</DataArray>
<DataArray type="Int64" Name="symmetric_tensor_int" NumberOfComponents="6" format="ascii">
1 2 3 4 5 6
2 3 4 5 6 7
3 4 5 6 7 8
4 5 6 7 8 9
5 6 7 8 9 10
6 7 8 9 10 11
7 8 9 10 11 12
8 9 10 11 12 13
9 10 11 12 13 14
10 11 12 13 14 15
11 12 13 14 15 16
12 13 14 15 16 17
13 14 15 16 17 18
14 15 16 17 18 19
15 16 17 18 19 20
16 17 18 19 20 21

</DataArray>
<DataArray type="Float64" Name="symmetric_tensor_float" NumberOfComponents="6" format="ascii">
1.00000000000e+00 2.00000000000e+00 3.00000000000e+00 4.00000000000e+00 5.00000000000e+00 6.00000000000e+00
1.01000000000e+00 2.01000000000e+00 3.01000000000e+00 4.01000000000e+00 5.01000000000e+00 6.01000000000e+00
1.02000000000e+00 2.02000000000e+00 3.02000000000e+00 4.02000000000e+00 5.02000000000e+00 6.02000000000e+00
1.03000000000e+00 2.03000000000e+00 3.03000000000e+00 4.03000000000e+00 5.03000000000e+00 6.03000000000e+00
1.04000000000e+00 2.04000000000e+00 3.04000000000e+00 4.04000000000e+00 5.04000000000e+00 6.04000000000e+00
1.05000000000e+00 2.05000000000e+00 3.05000000000e+00 4.05000000000e+00 5.05000000000e+00 6.05000000000e+00
1.06000000000e+00 2.06000000000e+00 3.06000000000e+00 4.06000000000e+00 5.06000000000e+00 6.06000000000e+00
1.07000000000e+00 2.07000000000e+00 3.07000000000e+00 4.07000000000e+00 5.07000000000e+00 6.07000000000e+00
1.08000000000e+00 2.08000000000e+00 3.08000000000e+00 4.08000000000e+00 5.08000000000e+00 6.08000000000e+00
1.09000000000e+00 2.09000000000e+00 3.09000000000e+00 4.09000000000e+00 5.09000000000e+00 6.09000000000e+00
1.10000000000e+00 2.10000000000e+00 3.10000000000e+00 4.10000000000e+00 5.10000000000e+00 6.10000000000e+00
1.11000000000e+00 2.11000000000e+00 3.11000000000e+00 4.11000000000e+00 5.11000000000e+00 6.11000000000e+00
1.12000000000e+00 2.12000000000e+00 3.12000000000e+00 4.12000000000e+00 5.12000000000e+00 6.12000000000e+00
1.13000000000e+00 2.13000000000e+00 3.13000000000e+00 4.13000000000e+00 5.13000000000e+00 6.13000000000e+00
1.14000000000e+00 2.14000000000e+00 3.14000000000e+00 4.14000000000e+00 5.14000000000e+00 6.14000000000e+00
1.15000000000e+00 2.15000000000e+00 3.15000000000e+00 4.15000000000e+00 5.15000000000e+00 6.15000000000e+00

</DataArray>
<DataArray type="Int64" Name="tensor_int" NumberOfComponents="9" format="ascii">
1 2 3 4 5 6 7 8 9
2 3 4 5 6 7 8 9 10
3 4 5 6 7 8 9 10 11
4 5 6 7 8 9 10 11 12
5 6 7 8 9 10 11 12 13
6 7 8 9 10 11 12 13 14
7 8 9 10 11 12 13 14 15
8 9 10 11 12 13 14 15 16
9 10 11 12 13 14 15 16 17
10 11 12 13 14 15 16 17 18
11 12 13 14 15 16 17 18 19
12 13 14 15 16 17 18 19 20
13 14 15 16 17 18 19 20 21
14 15 16 17 18 19 20 21 22
15 16 17 18 19 20 21 22 23
16 17 18 19 20 21 22 23 24

</DataArray>
<DataArray type="Float64" Name="tensor_float" NumberOfComponents="9" format="ascii">
1.00000000000e+00 2.00000000000e+00 3.00000000000e+00 4.00000000000e+00 5.00000000000e+00 6.00000000000e+00 7.00000000000e+00 8.00000000000e+00 9.00000000000e+00
1.01000000000e+00 2.01000000000e+00 3.01000000000e+00 4.01000000000e+00 5.01000000000e+00 6.01000000000e+00 7.01000000000e+00 8.01000000000e+00 9.01000000000e+00
1.02000000000e+00 2.02000000000e+00 3.02000000000e+00 4.02000000000e+00 5.02000000000e+00 6.02000000000e+00 7.02000000000e+00 8.02000000000e+00 9.02000000000e+00
1.03000000000e+00 2.03000000000e+00 3.03000000000e+00 4.03000000000e+00 5.03000000000e+00 6.03000000000e+00 7.03000000000e+00 8.03000000000e+00 9.03000000000e+00
1.04000000000e+00 2.04000000000e+00 3.04000000000e+00 4.04000000000e+00 5.04000000000e+00 6.04000000000e+00 7.04000000000e+00 8.04000000000e+00 9.04000000000e+00
1.05000000000e+00 2.05000000000e+00 3.05000000000e+00 4.05000000000e+00 5.05000000000e+00 6.05000000000e+00 7.05000000000e+00 8.05000000000e+00 9.05000000000e+00
1.06000000000e+00 2.06000000000e+00 3.06000000000e+00 4.06000000000e+00 5.06000000000e+00 6.06000000000e+00 7.06000000000e+00 8.06000000000e+00 9.06000000000e+00
1.07000000000e+00 2.07000000000e+00 3.07000000000e+00 4.07000000000e+00 5.07000000000e+00 6.07000000000e+00 7.07000000000e+00 8.07000000000e+00 9.07000000000e+00
1.08000000000e+00 2.08000000000e+00 3.08000000000e+00 4.08000000000e+00 5.08000000000e+00 6.08000000000e+00 7.08000000000e+00 8.08000000000e+00 9.08000000000e+00
1.09000000000e+00 2.09000000000e+00 3.09000000000e+00 4.09000000000e+00 5.09000000000e+00 6.09000000000e+00 7.09000000000e+00 8.09000000000e+00 9.09000000000e+00
1.10000000000e+00 2.10000000000e+00 3.10000000000e+00 4.10000000000e+00 5.10000000000e+00 6.10000000000e+00 7.10000000000e+00 8.10000000000e+00 9.10000000000e+00
1.11000000000e+00 2.11000000000e+00 3.11000000000e+00 4.11000000000e+00 5.11000000000e+00 6.11000000000e+00 7.11000000000e+00 8.11000000000e+00 9.11000000000e+00
1.12000000000e+00 2.12000000000e+00 3.12000000000e+00 4.12000000000e+00 5.12000000000e+00 6.12000000000e+00 7.12000000000e+00 8.12000000000e+00 9.12000000000e+00
1.13000000000e+00 2.13000000000e+00 3.13000000000e+00 4.13000000000e+00 5.13000000000e+00 6.13000000000e+00 7.13000000000e+00 8.13000000000e+00 9.13000000000e+00
1.14000000000e+00 2.14000000000e+00 3.14000000000e+00 4.14000000000e+00 5.14000000000e+00 6.14000000000e+00 7.14000000000e+00 8.14000000000e+00 9.14000000000e+00
1.15000000000e+00 2.15000000000e+00 3.15000000000e+00 4.15000000000e+00 5.15000000000e+00 6.15000000000e+00 7.15000000000e+00 8.15000000000e+00 9.15000000000e+00

</DataArray>
</PointData>
<CellData>
<DataArray type="Int64" Name="material" format="ascii">
1
1
2

</DataArray>
<DataArray type="Int64" Name="block_id" format="ascii">
1
1
2

</DataArray>
</CellData>
</Piece>
</UnstructuredGrid>
</VTKFile>
