<?xml version="1.0"?>
<VTKFile type="UnstructuredGrid" version="0.1" byte_order="LittleEndian">
<!--This file was created by meshio v5.3.5-->
<UnstructuredGrid>
<Piece NumberOfPoints="15" NumberOfCells="28">
<Points>
<DataArray type="Float64" Name="Points" NumberOfComponents="3" format="ascii">
0.00000000000e+00
0.00000000000e+00
0.00000000000e+00
0.00000000000e+00
1.00000000000e+00
0.00000000000e+00
0.00000000000e+00
0.00000000000e+00
1.00000000000e+00
0.00000000000e+00
1.00000000000e+00
1.00000000000e+00
1.00000000000e+00
0.00000000000e+00
0.00000000000e+00
1.00000000000e+00
1.00000000000e+00
0.00000000000e+00
1.00000000000e+00
0.00000000000e+00
1.00000000000e+00
1.00000000000e+00
1.00000000000e+00
1.00000000000e+00
5.00000000000e-01
5.00000000000e-01
0.00000000000e+00
5.00000000000e-01
0.00000000000e+00
5.00000000000e-01
1.00000000000e+00
5.00000000000e-01
5.00000000000e-01
5.00000000000e-01
1.00000000000e+00
5.00000000000e-01
0.00000000000e+00
5.00000000000e-01
5.00000000000e-01
5.00000000000e-01
5.00000000000e-01
1.00000000000e+00
5.00000000000e-01
5.00000000000e-01
5.00000000000e-01

</DataArray>
</Points>
<Cells>
<DataArray type="Int64" Name="connectivity" format="ascii">
2
0
12
9
0
1
12
8
1
3
12
11
3
2
12
13
2
6
9
13
0
4
8
9
1
5
11
8
3
7
13
11
6
4
9
10
4
5
8
10
5
7
11
10
7
6
13
10
12
9
13
2
12
8
9
0
12
11
8
1
12
13
11
3
10
13
9
6
10
9
8
4
10
8
11
5
10
11
13
7
12
13
9
14
12
9
8
14
12
8
11
14
12
11
13
14
10
9
13
14
10
8
9
14
10
11
8
14
10
13
11
14

</DataArray>
<DataArray type="Int64" Name="offsets" format="ascii">
4
8
12
16
20
24
28
32
36
40
44
48
52
56
60
64
68
72
76
80
84
88
92
96
100
104
108
112

</DataArray>
<DataArray type="Int64" Name="types" format="ascii">
10
10
10
10
10
10
10
10
10
10
10
10
10
10
10
10
10
10
10
10
10
10
10
10
10
10
10
10

</DataArray>
</Cells>
<PointData>
<DataArray type="Int64" Name="point_set_1" format="ascii">
1
1
1
1
0
0
0
0
0
0
0
0
1
0
0

</DataArray>
<DataArray type="Int64" Name="point_set_2" format="ascii">
0
0
0
0
1
1
1
1
0
0
1
0
0
0
0

</DataArray>
</PointData>
<CellData>
<DataArray type="Int64" Name="block_id" format="ascii">
1
1
1
1
1
1
1
1
1
1
1
1
1
1
1
1
1
1
1
1
1
1
1
1
1
1
1
1

</DataArray>
</CellData>
</Piece>
</UnstructuredGrid>
</VTKFile>
