<?xml version="1.0"?>
<VTKFile type="UnstructuredGrid" version="0.1" byte_order="LittleEndian">
<!--This file was created by meshio v5.3.5-->
<UnstructuredGrid>
<Piece NumberOfPoints="22" NumberOfCells="2">
<Points>
<DataArray type="Float64" Name="Points" NumberOfComponents="3" format="ascii">
0.00000000000e+00
0.00000000000e+00
0.00000000000e+00
1.00000000000e+00
0.00000000000e+00
0.00000000000e+00
1.00000000000e+00
1.00000000000e+00
0.00000000000e+00
0.00000000000e+00
1.00000000000e+00
0.00000000000e+00
0.00000000000e+00
0.00000000000e+00
1.00000000000e+00
1.00000000000e+00
0.00000000000e+00
1.00000000000e+00
1.00000000000e+00
1.00000000000e+00
1.00000000000e+00
0.00000000000e+00
1.00000000000e+00
1.00000000000e+00
5.00000000000e-01
5.00000000000e-01
0.00000000000e+00
5.00000000000e-01
1.00000000000e+00
0.00000000000e+00
0.00000000000e+00
5.00000000000e-01
0.00000000000e+00
5.00000000000e-01
5.00000000000e-01
1.00000000000e+00
5.00000000000e-01
1.00000000000e+00
1.00000000000e+00
0.00000000000e+00
5.00000000000e-01
1.00000000000e+00
0.00000000000e+00
0.00000000000e+00
5.00000000000e-01
1.00000000000e+00
1.00000000000e+00
5.00000000000e-01
0.00000000000e+00
1.00000000000e+00
5.00000000000e-01
1.00000000000e+00
5.00000000000e-01
1.00000000000e+00
5.00000000000e-01
0.00000000000e+00
1.00000000000e+00
1.00000000000e+00
5.00000000000e-01
0.00000000000e+00
5.00000000000e-01
0.00000000000e+00
0.00000000000e+00
1.00000000000e+00
0.00000000000e+00
5.00000000000e-01

</DataArray>
</Points>
<Cells>
<DataArray type="Int64" Name="connectivity" format="ascii">
0
3
2
4
7
6
10
9
8
13
12
11
14
16
15
4
5
6
0
1
2
18
17
11
20
19
8
14
21
15

</DataArray>
<DataArray type="Int64" Name="offsets" format="ascii">
15
30

</DataArray>
<DataArray type="Int64" Name="types" format="ascii">
26
26

</DataArray>
</Cells>
<PointData>
<DataArray type="Int64" Name="point_set_1" format="ascii">
1
0
0
1
1
0
0
1
0
0
1
0
0
1
1
0
1
0
0
0
0
0

</DataArray>
<DataArray type="Int64" Name="point_set_2" format="ascii">
0
1
1
0
0
1
1
0
0
0
0
0
0
0
0
1
0
1
0
1
0
1

</DataArray>
</PointData>
<CellData>
<DataArray type="Int64" Name="block_id" format="ascii">
1
1

</DataArray>
</CellData>
</Piece>
</UnstructuredGrid>
</VTKFile>
