<?xml version="1.0"?>
<VTKFile type="UnstructuredGrid" version="0.1" byte_order="LittleEndian">
<!--This file was created by meshio v5.3.5-->
<UnstructuredGrid>
<Piece NumberOfPoints="8" NumberOfCells="2">
<Points>
<DataArray type="Float64" Name="Points" NumberOfComponents="3" format="ascii">
0.00000000000e+00
0.00000000000e+00
0.00000000000e+00
1.00000000000e+00
0.00000000000e+00
0.00000000000e+00
1.00000000000e+00
1.00000000000e+00
0.00000000000e+00
0.00000000000e+00
1.00000000000e+00
0.00000000000e+00
0.00000000000e+00
0.00000000000e+00
1.00000000000e+00
1.00000000000e+00
0.00000000000e+00
1.00000000000e+00
1.00000000000e+00
1.00000000000e+00
1.00000000000e+00
0.00000000000e+00
1.00000000000e+00
1.00000000000e+00

</DataArray>
</Points>
<Cells>
<DataArray type="Int64" Name="connectivity" format="ascii">
0
3
2
4
7
6
4
5
6
0
1
2

</DataArray>
<DataArray type="Int64" Name="offsets" format="ascii">
6
12

</DataArray>
<DataArray type="Int64" Name="types" format="ascii">
13
13

</DataArray>
</Cells>
<PointData>
<DataArray type="Int64" Name="point_set_1" format="ascii">
1
0
0
1
1
0
0
1

</DataArray>
<DataArray type="Int64" Name="point_set_2" format="ascii">
0
1
1
0
0
1
1
0

</DataArray>
</PointData>
<CellData>
<DataArray type="Int64" Name="block_id" format="ascii">
1
1

</DataArray>
</CellData>
</Piece>
</UnstructuredGrid>
</VTKFile>
